LAMMPS data file via write_data, version 29 Aug 2024, timestep = 1, units = metal

4 atoms
1 atom types

0 3.61 xlo xhi
0 3.61 ylo yhi
0 3.61 zlo zhi

Masses

1 63.546

Atoms # atomic

1 1 0 0 0 0 0 0
2 1 1.805 1.805 0 0 0 0
3 1 1.805 0 1.805 0 0 0
4 1 0 1.805 1.805 0 0 0

Velocities

1 0 0 0
2 0 0 0
3 0 0 0
4 0 0 0
