LAMMPS data file via write_data, version 29 Aug 2024, timestep = 1, units = metal

4 atoms
1 atom types

0 3.91 xlo xhi
0 3.91 ylo yhi
0 3.91 zlo zhi

Masses

1 26.982

Atoms # atomic

1 1 0 0 0 0 0 0
2 1 1.955 1.955 0 0 0 0
3 1 1.955 0 1.955 0 0 0
4 1 0 1.955 1.955 0 0 0

Velocities

1 0 0 0
2 0 0 0
3 0 0 0
4 0 0 0
