LAMMPS data file via write_data, version 29 Aug 2024, timestep = 1, units = metal

4 atoms
1 atom types

0 4.02 xlo xhi
0 4.02 ylo yhi
0 4.02 zlo zhi

Masses

1 26.982

Atoms # atomic

1 1 0 0 0 0 0 0
2 1 2.01 2.01 0 0 0 0
3 1 2.01 0 2.01 0 0 0
4 1 0 2.01 2.01 0 0 0

Velocities

1 0 0 0
2 0 0 0
3 0 0 0
4 0 0 0
