ITEM: TIMESTEP
3700
ITEM: NUMBER OF ATOMS
8000
ITEM: BOX BOUNDS pp pp pp
0.0000000000000000e+00 1.8820720577620570e+01
0.0000000000000000e+00 1.8820720577620570e+01
0.0000000000000000e+00 3.7641441155241139e+01
ITEM: ATOMS id mass type x y z v_temp
7951 1 1 0.477644 0.150621 0.905772 1.95469
328 1 1 0.097981 1.66433 0.865209 0.763533
1739 1 1 2.65216 1.79215 35.9057 2.4722
1573 1 1 4.84975 0.692082 0.0525309 0.685582
1198 1 1 3.41076 2.67386 1.03823 0.895197
7166 1 1 7.81021 1.24942 37.0134 0.639184
7300 1 1 5.15885 18.4836 0.70847 0.325832
1328 1 1 6.76437 0.931796 1.25946 4.05191
1446 1 1 8.69735 18.3267 0.203397 0.979345
1140 1 1 10.7355 18.5263 1.05682 0.818968
56 1 1 6.80451 3.00835 0.317166 0.0429697
6855 1 1 10.0331 17.7558 37.3334 0.190819
7149 1 1 11.9786 18.3277 0.428517 1.93588
887 1 1 10.3861 18.0109 35.7985 2.02967
7745 1 1 12.2018 0.449405 34.931 1.90863
801 1 1 12.5673 18.171 35.4195 1.96259
1479 1 1 17.1359 1.19088 0.674281 2.12077
7301 1 1 13.4245 17.9982 0.698485 2.81225
1511 1 1 17.3093 0.647827 1.66392 0.150582
6839 1 1 16.802 1.29407 36.9321 0.333897
1672 1 1 17.0201 1.69746 1.70484 3.09591
7088 1 1 0.193892 18.7151 37.3982 0.68373
1380 1 1 18.0084 1.03658 36.9011 2.5288
7930 1 1 3.07816 0.134024 35.9555 0.191383
508 1 1 0.596207 2.87094 1.53817 1.00329
2026 1 1 4.11687 0.980728 1.66783 2.53976
1279 1 1 4.23548 3.87456 1.73506 1.77887
6494 1 1 5.22379 1.57155 37.1698 0.592541
7604 1 1 6.23602 2.73503 1.06245 0.797153
1266 1 1 6.77332 1.83926 1.72782 0.491969
324 1 1 6.10462 3.70295 1.30755 1.44337
7751 1 1 7.14341 2.79416 1.62127 2.30458
7564 1 1 8.55632 4.53976 1.0523 0.30347
7653 1 1 6.68952 1.70097 36.6809 3.73128
6866 1 1 7.73166 2.55756 2.49369 0.8651
775 1 1 11.5221 0.581655 36.1564 2.36643
7283 1 1 9.21292 3.8815 36.2187 0.453178
3337 1 1 12.5476 0.967435 0.287201 2.38341
446 1 1 11.4162 2.70814 36.9515 0.866594
350 1 1 13.2554 1.64382 37.5969 1.16731
6850 1 1 12.3329 2.43751 36.2731 0.364304
1183 1 1 16.1744 1.85508 0.890538 2.98393
1020 1 1 16.686 4.86163 0.733898 2.43662
6845 1 1 17.6045 2.64489 0.733587 0.736222
7202 1 1 18.4306 3.64819 1.94911 1.15812
1045 1 1 2.20618 4.29207 2.55677 2.72606
1713 1 1 1.31973 1.83501 0.529528 3.20011
6006 1 1 2.08913 2.67264 1.41624 3.13646
7697 1 1 1.38831 1.87487 1.95521 1.07537
406 1 1 3.49298 4.94355 1.46913 0.336428
7612 1 1 7.84946 4.67126 1.7155 0.71842
1333 1 1 9.37812 4.33589 37.2975 0.335199
7625 1 1 8.18533 3.79612 2.08688 2.84861
437 1 1 11.1721 1.29302 37.3351 0.752648
7032 1 1 10.4753 1.87632 1.23894 0.416262
7392 1 1 15.0381 3.21912 0.391745 1.24539
5355 1 1 1.76016 3.44863 1.81516 1.26577
853 1 1 15.7896 5.34726 0.432178 0.883898
7595 1 1 17.6792 4.70905 2.22934 1.2308
1037 1 1 0.319665 5.9222 1.2178 1.40572
6423 1 1 17.2788 4.04005 1.08129 1.16419
6875 1 1 17.5021 5.12212 36.6428 0.979617
6987 1 1 2.23565 5.05074 1.73255 0.751062
366 1 1 2.25796 4.54795 35.2127 0.579968
7718 1 1 3.15931 3.74759 2.13293 0.841633
6083 1 1 5.92282 5.01067 1.92028 0.0968486
1310 1 1 2.41511 6.33742 3.24639 1.03683
1723 1 1 6.3446 4.6508 35.1285 4.30186
135 1 1 6.18078 7.84294 37.2767 0.116639
5799 1 1 9.4206 3.9022 3.20226 0.98253
217 1 1 5.92439 7.19691 4.35266 1.85509
2244 1 1 10.7906 3.4827 1.47031 1.57808
6581 1 1 9.00317 2.00089 2.3268 0.940405
7450 1 1 11.3053 4.91469 0.678303 0.538955
7155 1 1 13.686 2.53224 0.989986 1.26082
6551 1 1 9.80535 0.880135 0.722555 3.69963
7544 1 1 13.7623 4.68194 0.656405 1.07006
1377 1 1 14.8001 4.94213 1.42307 0.540607
223 1 1 15.7519 6.13972 1.51114 3.09516
7273 1 1 15.5887 4.3852 0.173854 1.55556
877 1 1 17.4075 3.47044 36.6955 5.15589
645 1 1 17.9517 7.56663 2.3171 1.69225
1427 1 1 0.459865 4.33522 0.663294 1.1309
1562 1 1 2.34048 6.13605 0.581305 0.904602
573 1 1 18.0197 7.2111 0.434186 2.20834
7956 1 1 5.27761 3.48029 37.0587 0.681847
6152 1 1 3.24325 4.1463 37.2706 0.811458
1224 1 1 9.28125 6.36169 0.720054 0.49824
1381 1 1 10.2127 3.59032 2.39877 0.966968
354 1 1 9.5654 3.96265 1.3507 2.09191
6996 1 1 9.75673 5.02185 2.87134 1.46878
7408 1 1 10.4855 4.54076 37.549 0.641493
7466 1 1 11.9697 6.36591 2.57198 2.34676
973 1 1 12.0747 5.50598 1.80238 0.636991
6949 1 1 11.7586 6.91799 0.846034 0.587475
1664 1 1 12.6585 6.31825 0.785923 3.20546
6997 1 1 12.2341 5.51536 37.6209 2.63999
6470 1 1 12.2094 4.20109 1.55455 0.821005
675 1 1 12.8503 7.14842 2.94631 5.26378
6044 1 1 14.0482 5.62921 2.93866 0.462923
140 1 1 15.5881 6.99475 3.27479 1.704
276 1 1 13.8053 6.00962 0.749321 1.4415
1537 1 1 14.6586 6.67408 1.9588 2.21257
371 1 1 15.9122 6.1601 36.017 1.75533
7659 1 1 17.5287 5.60777 3.02705 0.645469
3092 1 1 14.9077 7.0014 36.5289 1.37879
1757 1 1 16.9932 7.11989 3.22827 0.19539
7397 1 1 0.320288 9.74888 1.39387 1.61777
1360 1 1 18.7645 9.33475 2.44522 0.841255
7942 1 1 2.3607 7.49897 36.8947 0.870712
86 1 1 3.38782 7.56973 37.2716 1.20911
6578 1 1 4.54963 9.13522 1.83637 0.337918
6767 1 1 2.78762 9.59903 0.98514 2.6307
1415 1 1 4.55135 7.16182 37.086 6.27293
6874 1 1 9.5277 8.36337 0.284078 2.74297
6933 1 1 9.10329 10.4297 1.65436 3.53377
7573 1 1 10.308 7.85674 1.05287 3.20789
5690 1 1 12.563 8.59634 0.800695 5.83268
610 1 1 10.9231 9.91231 1.88386 3.92045
5857 1 1 18.1018 8.82908 0.793034 4.82431
1399 1 1 0.116594 10.7735 2.03911 2.87525
5649 1 1 2.54739 9.57711 4.76544 1.17602
7026 1 1 3.14301 10.0697 4.12542 1.59769
158 1 1 4.26063 8.55533 3.22546 0.0527756
930 1 1 5.47529 11.569 37.3152 3.83458
7065 1 1 6.94531 10.4918 1.12454 0.722142
7731 1 1 5.08174 10.2021 0.89967 2.96792
429 1 1 7.58761 7.73973 0.506953 3.86772
7002 1 1 8.45188 9.50448 2.07935 0.917761
154 1 1 8.74494 10.1225 2.96528 0.764141
1296 1 1 10.4954 7.9764 0.00579808 1.7745
7943 1 1 12.0333 9.56551 0.28706 0.9579
232 1 1 15.1077 9.96431 36.1081 1.57752
1193 1 1 14.1095 8.62904 1.81678 0.421289
7021 1 1 14.3806 8.084 37.3654 0.148804
1120 1 1 14.2815 9.8056 1.5873 0.643279
7548 1 1 14.8622 9.03794 0.258189 1.08079
7800 1 1 17.5346 9.05233 37.1478 0.540845
3472 1 1 16.7283 9.77442 2.38615 1.22199
219 1 1 16.8388 7.99026 37.377 3.01742
7967 1 1 2.26505 10.2402 3.67245 3.9153
1349 1 1 2.42979 11.3499 3.28447 1.02829
7729 1 1 1.30588 12.3765 2.85909 0.424057
7047 1 1 1.98982 13.4895 1.64481 0.866025
48 1 1 6.04345 9.69063 5.44764 0.849272
228 1 1 3.00993 10.9329 37.3963 1.28643
1547 1 1 6.90543 9.63986 4.24823 0.760696
1790 1 1 8.28111 7.39153 2.72646 1.26041
238 1 1 9.69876 11.2931 0.823735 2.12375
678 1 1 7.19577 12.4137 37.29 0.519911
1385 1 1 9.86284 12.127 1.54003 0.801662
64 1 1 7.46095 13.1415 0.674594 1.4859
229 1 1 10.9431 9.80568 36.9547 0.957593
969 1 1 15.0767 10.9433 1.78062 2.14547
1997 1 1 13.5892 12.4045 0.686682 2.3696
7512 1 1 15.2654 11.9799 37.5791 2.0894
627 1 1 16.044 10.0842 1.46763 0.467743
736 1 1 18.2489 10.4653 0.846136 4.07204
7805 1 1 15.761 14.4123 36.3618 0.663113
549 1 1 2.16028 16.6288 2.47637 3.47494
1971 1 1 2.90633 12.3911 1.66119 5.49777
7621 1 1 3.10306 13.6042 3.42262 1.30848
452 1 1 3.18656 10.7577 3.14422 0.745697
1046 1 1 6.78196 14.8057 37.4427 0.738607
23 1 1 3.16254 13.7927 36.3242 1.95897
6253 1 1 7.24263 8.72993 1.24329 2.28023
6723 1 1 11.7973 13.5721 0.995858 1.17385
423 1 1 14.1131 11.5603 1.71372 0.830168
296 1 1 17.4096 13.4106 36.8016 0.879929
7282 1 1 14.4775 14.7417 37.3748 1.33984
962 1 1 1.6147 11.7101 1.08075 3.32963
6183 1 1 1.21628 13.0626 37.065 0.535854
6411 1 1 1.88794 12.9407 0.779111 2.11401
7060 1 1 4.11988 13.6501 0.17622 2.53806
6898 1 1 3.65467 12.6715 0.65947 1.83169
6379 1 1 6.01646 14.0207 2.00194 2.88171
7035 1 1 7.64343 15.9026 1.867 1.46969
7457 1 1 5.01273 14.1684 37.582 1.07206
378 1 1 11.8216 15.3583 3.32436 3.33491
5866 1 1 7.89314 14.787 37.6102 0.990337
7620 1 1 13.3066 14.5184 0.743673 6.70273
708 1 1 13.1945 10.3232 0.298628 1.04786
7955 1 1 12.6899 13.4136 0.321492 1.43244
1567 1 1 15.619 12.2572 36.3513 0.655394
7338 1 1 17.4338 15.0554 0.933677 2.00663
336 1 1 15.9951 14.9192 1.05762 0.708011
7261 1 1 18.2615 15.7223 0.732259 4.09313
918 1 1 0.157012 14.5751 1.7555 2.2647
7845 1 1 3.85858 15.3687 35.5089 1.44773
7405 1 1 5.54185 16.0774 0.806595 2.30118
1995 1 1 7.33492 15.6649 3.33055 0.424182
1561 1 1 5.43657 15.9252 37.0488 1.70534
37 1 1 8.93985 14.7565 1.0276 3.58239
6399 1 1 7.93018 15.5183 0.929084 2.87548
961 1 1 9.81426 16.9712 1.77766 0.942318
7950 1 1 12.638 14.702 1.69252 2.04956
1144 1 1 10.7664 14.7189 35.4412 0.148762
511 1 1 12.5755 14.403 37.3341 0.853803
6032 1 1 12.1784 16.1536 36.0951 0.226334
7163 1 1 12.8064 16.4505 37.6148 0.133516
820 1 1 12.6798 15.6162 36.9451 1.06559
629 1 1 15.1642 14.6315 1.90723 0.945846
1529 1 1 15.3589 15.6219 1.40219 1.34705
375 1 1 16.009 13.0623 0.286126 5.01546
7757 1 1 16.2972 13.7981 37.1534 0.113336
7672 1 1 1.08777 16.484 37.3851 0.112093
1170 1 1 17.9519 14.9811 2.10266 3.76338
757 1 1 1.12792 16.5717 36.2187 0.827815
2476 1 1 2.34095 16.4831 -0.0143926 4.34213
1984 1 1 0.394919 15.1026 0.803876 1.67723
1136 1 1 1.33629 16.6811 1.40126 2.93291
7248 1 1 3.45422 15.977 0.59691 1.89441
7530 1 1 6.3923 16.8141 2.97641 2.83382
569 1 1 5.89352 14.7393 0.519169 2.95929
7899 1 1 7.74255 16.5287 36.2624 0.346215
7736 1 1 9.2363 15.7537 0.494148 0.995359
6673 1 1 10.7811 15.415 0.0639488 1.48214
1103 1 1 11.1929 15.1437 36.861 3.2876
7680 1 1 14.1007 16.8024 37.5524 1.25815
2106 1 1 11.4322 15.1126 1.12128 0.402719
472 1 1 13.7519 17.0566 1.71393 2.59721
2109 1 1 15.2369 18.2142 1.0552 0.337546
579 1 1 16.0889 16.9883 0.367212 2.42836
1042 1 1 0.429971 15.8236 0.104008 2.92057
2662 1 1 1.64576 17.4558 36.1705 0.864233
668 1 1 1.14241 17.9287 1.09145 0.471741
1469 1 1 3.93428 18.7545 0.685403 4.60891
7773 1 1 4.41039 2.49477 1.31768 0.53159
175 1 1 6.21548 1.65745 0.614054 3.68263
895 1 1 9.42474 17.6038 0.611703 0.580983
1993 1 1 10.5266 17.0951 0.192233 0.624605
7753 1 1 9.11082 17.6975 36.9143 0.518034
7568 1 1 12.9835 17.6367 37.2829 1.10291
1308 1 1 14.6302 17.16 36.712 0.759007
788 1 1 16.0826 16.2557 35.4966 0.0352913
7529 1 1 17.1469 18.5656 0.866222 1.46595
1315 1 1 17.5542 18.1668 37.5562 1.31344
7434 1 1 17.7003 17.9563 1.812 0.756195
910 1 1 0.888103 18.4858 2.90729 3.82917
206 1 1 1.64782 0.0920331 3.46964 2.86328
608 1 1 2.21551 3.52734 3.89445 1.3444
692 1 1 3.57641 2.62631 4.80616 1.04463
7818 1 1 8.44104 0.259041 3.11359 0.479437
6079 1 1 6.33306 17.8977 0.700727 0.493541
55 1 1 10.7495 17.6204 1.55512 3.22294
2103 1 1 8.69438 0.700949 0.729747 0.794132
343 1 1 10.8678 17.2986 3.05863 0.651377
515 1 1 12.4661 18.7056 37.3105 2.53648
94 1 1 10.9451 0.980227 0.839177 2.21495
6659 1 1 11.8111 2.94637 1.41715 2.52242
2348 1 1 13.9386 0.286001 1.6039 1.02925
409 1 1 14.2629 1.59336 0.506167 3.19107
7340 1 1 11.8387 18.4945 1.48262 1.18495
281 1 1 12.9982 0.0533289 1.42118 0.605994
822 1 1 14.3058 1.8843 3.11518 0.388124
430 1 1 14.4334 4.49063 2.4791 1.9682
1928 1 1 14.577 1.94845 1.87001 0.819925
807 1 1 16.3814 17.9036 4.92094 6.12392
351 1 1 18.3236 16.3469 37.2841 4.58623
1607 1 1 17.5336 18.6812 2.50037 0.768672
149 1 1 17.1984 2.48706 2.4518 3.2037
965 1 1 17.8428 2.84691 3.76483 0.239891
2044 1 1 4.50086 3.72838 2.74546 1.12374
1654 1 1 1.6121 0.933578 3.03145 0.904011
104 1 1 3.89075 1.0644 2.88103 1.0564
915 1 1 6.39473 3.30724 3.90769 1.46466
6040 1 1 8.72506 0.984978 1.84893 1.03579
454 1 1 9.75062 3.24025 37.3169 1.84089
726 1 1 12.4548 3.05336 2.19502 5.54408
1270 1 1 13.5666 2.4836 2.30394 4.15332
6241 1 1 12.6949 2.2146 1.62981 0.5225
828 1 1 13.7525 1.5416 1.65404 2.01129
7440 1 1 16.0718 3.1927 0.443614 1.02397
7028 1 1 12.1758 1.25397 2.89112 4.6307
552 1 1 16.7752 6.22518 1.32029 4.88644
1591 1 1 16.1854 2.83293 1.68565 2.20249
914 1 1 18.5998 3.03048 4.5796 3.25765
7633 1 1 16.4625 4.29585 2.08833 1.10392
383 1 1 0.374645 4.1278 3.10139 1.49934
643 1 1 2.2336 3.0207 2.497 1.65937
115 1 1 0.904713 2.57833 3.18048 5.39432
7660 1 1 1.06114 2.92571 0.495326 2.06818
489 1 1 4.63777 5.13675 2.76894 0.72436
1322 1 1 4.96112 2.664 2.43064 0.235858
7879 1 1 5.80749 5.52343 3.25027 5.31793
1237 1 1 8.78161 5.41812 1.53809 0.969491
1850 1 1 7.04268 5.28024 2.39839 3.41601
188 1 1 6.95266 5.00315 3.85727 1.41437
7861 1 1 8.71643 4.03158 3.89464 2.02244
6922 1 1 8.86177 2.344 3.41733 0.596346
580 1 1 6.65482 4.14013 2.18645 0.471148
183 1 1 11.451 1.81189 4.37744 2.39751
593 1 1 9.05306 3.26065 2.41468 3.84706
7468 1 1 13.3416 3.70485 1.37268 2.647
2139 1 1 11.7803 4.83536 2.52227 4.93786
1213 1 1 15.8969 4.70873 3.09587 0.0790606
1203 1 1 15.5265 5.25675 2.06523 2.68306
982 1 1 0.42414 4.14488 1.73227 1.87677
1409 1 1 1.33577 8.05106 0.840968 1.44017
7938 1 1 4.10656 3.30862 37.2931 1.36374
1338 1 1 3.6666 6.75842 6.0897 2.14327
936 1 1 2.79804 0.969225 2.92496 2.68099
6605 1 1 5.86833 4.82625 0.91097 0.381448
2318 1 1 5.63702 4.92361 5.67426 0.794658
6216 1 1 5.38377 6.89935 0.0426371 1.55873
125 1 1 8.06985 3.61186 3.1785 1.53613
61 1 1 10.4228 3.2106 4.23422 0.726531
6566 1 1 8.0503 4.8352 4.08631 0.550562
164 1 1 11.2977 1.59752 3.2286 3.30657
7348 1 1 13.1638 4.57319 6.16059 2.84721
285 1 1 10.8432 4.58507 2.1149 3.09583
5812 1 1 13.1224 7.74146 1.20866 0.183193
651 1 1 16.6081 6.23838 2.97381 3.49018
7358 1 1 18.35 6.72834 1.94272 0.83643
602 1 1 17.6273 6.08433 0.636902 0.591973
1715 1 1 1.28295 6.19527 2.20459 1.02089
137 1 1 16.5873 4.01311 0.0456227 0.0152875
314 1 1 0.854555 5.12344 1.44329 0.859284
72 1 1 2.16064 5.24211 3.26519 1.29214
802 1 1 1.09961 7.39306 3.83238 0.367591
6561 1 1 0.609468 6.64415 37.4687 0.752339
305 1 1 0.0210083 8.61588 5.57412 0.508067
7944 1 1 1.83204 7.1857 2.36916 2.0983
7803 1 1 1.86127 7.2139 1.14106 1.48675
1864 1 1 0.495654 5.07111 4.26343 3.23906
6971 1 1 5.11274 7.76472 2.50337 1.04151
190 1 1 1.60487 5.47173 0.0494498 1.53766
7387 1 1 8.18161 6.18618 3.64 5.17828
1781 1 1 9.88517 2.78436 3.09438 0.0168021
7094 1 1 10.9974 4.44451 3.30533 0.474537
564 1 1 9.86368 4.95139 0.687672 1.87301
1450 1 1 12.0346 4.41811 4.07479 0.825812
7719 1 1 11.8279 3.79951 2.57475 1.71282
550 1 1 15.1689 8.0565 2.2018 0.985436
108 1 1 11.1009 2.21579 2.41041 1.38396
271 1 1 12.6145 6.48017 3.86821 1.33729
486 1 1 12.2981 7.62294 3.71968 1.1013
956 1 1 15.6343 6.1882 3.93807 0.401179
235 1 1 16.3916 5.56022 3.74144 0.980662
6719 1 1 -0.0154763 5.66576 3.48365 3.48735
6196 1 1 1.81016 8.01945 3.04792 3.46903
1596 1 1 2.0628 8.97155 2.13716 0.782081
7308 1 1 2.98673 6.90821 0.238886 0.458561
7854 1 1 4.77675 9.70651 5.17992 0.838212
1917 1 1 3.32874 9.78787 2.64902 2.70315
7326 1 1 3.47495 8.09749 2.53794 0.961953
1681 1 1 5.52263 8.61022 1.7112 0.488434
7721 1 1 6.78913 9.05139 3.13093 1.62009
7482 1 1 8.06983 6.79986 0.304481 0.745172
568 1 1 8.41553 8.39835 3.58734 0.428921
1273 1 1 6.7954 6.47469 1.95245 0.304112
7643 1 1 10.703 8.97507 2.52253 1.13047
277 1 1 9.51077 6.26362 1.7337 1.79711
825 1 1 11.9525 9.30672 2.08742 1.57351
543 1 1 13.1047 8.90053 1.69507 0.92186
7945 1 1 14.0674 9.92548 36.8565 2.10912
790 1 1 14.9476 8.57428 4.06001 0.962985
6159 1 1 0.294056 6.52539 4.78603 1.43491
913 1 1 18.3931 7.30992 3.25939 1.93688
669 1 1 16.3053 8.62382 1.74241 2.811
79 1 1 15.1118 7.92226 1.1265 0.954633
926 1 1 0.367723 6.75495 3.68057 1.38677
205 1 1 0.567271 7.37 2.40893 1.31998
7717 1 1 1.22303 11.4518 3.77903 0.368715
773 1 1 2.96458 11.6302 5.62457 0.311079
2504 1 1 1.72436 8.76165 6.30852 1.14562
8000 1 1 6.22529 8.17458 3.34596 1.98869
1863 1 1 5.95212 9.38185 1.01618 2.21173
357 1 1 4.02946 9.83931 0.484144 1.0631
529 1 1 5.29067 10.3329 4.2719 1.63663
615 1 1 5.66815 6.1935 2.47708 0.0205063
7335 1 1 9.43737 8.62332 3.4846 2.25207
1001 1 1 9.59928 8.38113 1.5807 0.683804
2814 1 1 9.91348 10.0672 35.1424 0.85248
7004 1 1 12.4082 10.266 2.40038 0.745675
738 1 1 11.4623 10.2229 2.876 1.97364
1906 1 1 12.9027 11.6143 2.25265 3.20264
374 1 1 12.9252 8.07504 2.56388 2.72239
7913 1 1 13.1865 7.2154 36.9691 5.1547
596 1 1 16.8082 11.1431 2.45162 0.346837
7432 1 1 16.4139 9.58775 3.87377 1.9331
7488 1 1 14.8358 10.2225 0.695806 1.84888
6675 1 1 18.8202 8.17956 2.76358 0.809185
7966 1 1 0.986128 9.45596 3.10603 0.0596093
634 1 1 0.28552 10.6567 3.17413 2.19924
7056 1 1 2.93424 9.76848 6.079 3.81042
6232 1 1 3.66079 10.7243 5.04162 1.78385
146 1 1 5.36532 13.0615 4.34556 0.447538
6584 1 1 5.33833 10.7378 1.7076 1.09036
1226 1 1 7.93651 10.6844 0.959375 1.64333
823 1 1 9.83195 9.84857 2.38895 2.56621
955 1 1 11.5725 7.86023 2.76339 0.817088
699 1 1 7.23874 11.8351 3.66372 0.867921
342 1 1 8.26882 12.1311 2.19962 2.0656
574 1 1 9.8002 10.4276 36.9546 0.40702
386 1 1 12.5919 13.2875 36.7862 0.188366
818 1 1 15.4553 11.096 0.759941 2.4695
2453 1 1 13.2551 10.4164 3.80785 1.89603
2353 1 1 15.8131 14.5311 3.72948 1.46388
600 1 1 15.1533 8.87861 1.28459 0.93367
7888 1 1 15.1265 9.91394 37.5131 0.929337
1079 1 1 0.301772 9.75475 3.99539 0.958056
750 1 1 1.25912 9.31599 0.94112 3.40625
7128 1 1 17.643 10.7071 1.77698 0.61361
7851 1 1 18.5776 11.4314 3.46739 2.29571
1528 1 1 3.83266 13.1016 2.33721 1.39981
1006 1 1 4.38914 11.2655 4.42697 2.32923
704 1 1 6.05136 11.7716 1.14371 1.82477
7755 1 1 3.83053 12.0141 2.31688 1.36146
563 1 1 4.29348 10.8969 3.45861 1.94217
163 1 1 6.64268 12.564 0.997161 1.76509
7704 1 1 8.96737 12.8306 2.22309 1.00184
416 1 1 10.664 11.7811 2.24857 2.44293
7266 1 1 10.141 13.439 1.25459 2.00906
976 1 1 13.523 11.5529 3.36706 3.79934
1189 1 1 14.8099 12.5912 2.78304 0.760486
7138 1 1 15.9722 13.6292 1.33011 0.257494
7999 1 1 16.113 12.8416 2.15536 1.59116
1143 1 1 16.8396 11.7979 3.34856 4.54809
303 1 1 16.9121 13.9674 4.11696 2.67095
991 1 1 17.5403 11.6971 0.995495 0.604398
7772 1 1 1.12384 14.1158 2.43848 0.383663
559 1 1 2.4506 13.861 4.32393 3.30589
4804 1 1 4.04278 14.8232 2.80217 0.8845
6464 1 1 1.12924 14.3027 1.34593 3.18844
1448 1 1 4.98984 14.1625 2.26437 0.604055
7217 1 1 3.73349 16.3543 3.35703 4.12825
7489 1 1 6.53365 14.4809 2.87889 1.30832
1210 1 1 6.82025 12.6963 2.06449 0.397162
7961 1 1 5.48295 12.818 1.8157 0.0522222
769 1 1 7.73129 14.2071 1.12677 1.76762
1432 1 1 13.1504 14.2959 4.50157 0.910632
2347 1 1 9.26619 13.0936 1.24827 1.9165
7705 1 1 11.625 14.4829 0.235647 2.03243
6872 1 1 12.4529 15.0897 0.839972 0.43797
209 1 1 13.8643 14.5853 1.82122 1.95913
1406 1 1 16.0949 14.6721 2.6263 0.990743
1077 1 1 13.6946 14.9214 2.88566 2.26622
255 1 1 16.9181 14.1166 2.40662 1.04307
1910 1 1 1.35141 14.234 0.0872066 0.692201
1999 1 1 18.7542 18.0279 0.819412 1.86235
7404 1 1 3.79255 14.7191 1.12278 1.33473
1729 1 1 8.14185 16.4854 1.14668 1.29032
687 1 1 6.42805 15.391 2.13105 2.50772
239 1 1 10.1478 14.3474 1.75664 0.769568
89 1 1 10.6836 16.1392 3.02779 0.458877
640 1 1 10.2945 13.4991 2.41655 2.39212
2373 1 1 13.4373 15.6433 0.981114 1.05439
1439 1 1 13.4145 16.5512 5.52653 2.56146
7052 1 1 13.4242 16.393 36.4501 1.525
7444 1 1 13.9116 13.7539 2.4687 0.762384
7545 1 1 13.5278 14.8151 36.9706 3.19931
234 1 1 2.10388 13.0796 2.6199 0.496064
6824 1 1 17.4995 16.8039 2.83235 2.50088
1590 1 1 17.6164 14.3891 37.4468 0.84904
954 1 1 18.5621 17.2408 3.21155 1.46541
1282 1 1 2.23769 17.702 2.75532 1.48097
785 1 1 3.66343 15.6956 2.32656 1.21239
1634 1 1 2.62264 17.9058 1.69108 3.27617
1245 1 1 3.58254 17.1516 2.26169 2.19491
7957 1 1 4.18592 16.788 1.16905 0.330024
7303 1 1 5.31588 18.2565 1.88787 4.16791
1337 1 1 6.64892 16.6098 1.8665 1.2999
381 1 1 10.6306 16.7823 3.96602 1.05104
1453 1 1 11.0528 16.5556 2.1483 3.71098
2224 1 1 12.0641 17.0651 0.486293 2.18549
841 1 1 10.6504 14.5753 0.751544 2.7536
6582 1 1 10.2082 16.1111 1.02894 7.47308
809 1 1 12.4667 16.1674 1.11666 1.10075
948 1 1 12.0718 15.6652 0.144566 0.39466
1186 1 1 14.402 16.0083 0.285181 1.06506
1986 1 1 14.5909 16.0792 36.7758 1.25727
7497 1 1 14.8149 13.7795 0.348303 3.86917
500 1 1 15.273 16.671 0.936004 2.42779
7977 1 1 0.442171 17.1196 0.430828 0.80791
7116 1 1 0.375655 16.5631 2.4189 1.61712
7947 1 1 18.2232 0.0541809 1.40149 3.08489
1509 1 1 3.21673 0.264359 2.24766 1.82125
332 1 1 4.73655 17.1919 2.02866 0.396792
215 1 1 1.37457 0.451161 5.80509 0.915279
7613 1 1 7.59993 0.717949 2.38396 0.649059
504 1 1 7.29285 17.3977 1.00499 6.70148
96 1 1 3.10761 1.67659 4.07636 0.195644
763 1 1 9.58586 16.2929 2.44653 1.55428
1675 1 1 5.80926 18.2959 2.81996 0.595948
1416 1 1 8.2645 17.4987 1.49252 2.14145
1196 1 1 10.2942 15.6275 1.78958 1.78552
898 1 1 8.79137 16.9934 2.80124 3.53044
7452 1 1 11.3907 16.2648 1.24209 2.30498
1339 1 1 13.087 1.54861 2.44329 0.47268
980 1 1 11.4991 16.585 37.2869 2.11205
1588 1 1 11.757 0.900737 2.07241 0.61181
1589 1 1 14.5018 0.658832 3.4188 0.416437
505 1 1 11.6457 17.6291 2.17311 1.74401
7246 1 1 12.9624 17.6114 2.36604 1.94632
653 1 1 14.072 18.2015 1.98829 0.669516
1269 1 1 14.1586 16.3566 2.74248 0.938071
1129 1 1 15.2832 14.8396 0.40997 6.85975
7744 1 1 15.7586 18.07 2.88059 2.20689
1367 1 1 17.3095 16.0568 1.42606 0.432437
109 1 1 1.71007 1.92498 3.10989 0.935156
845 1 1 1.08343 1.67979 5.16767 1.50293
2089 1 1 4.52796 1.32286 4.94984 3.02538
547 1 1 5.61254 1.96592 2.09913 2.20894
7197 1 1 5.20494 2.04722 4.42953 0.701865
6777 1 1 6.07903 3.04628 2.23183 0.407603
7982 1 1 8.59574 18.0704 3.38887 0.530325
171 1 1 5.69067 17.3423 2.14165 0.732588
1734 1 1 9.17997 0.0681428 2.24107 3.12972
1466 1 1 9.25401 18.2772 1.30248 0.151119
2204 1 1 11.1135 18.6856 2.54156 1.30944
7821 1 1 8.45849 17.9537 2.4469 0.692588
7539 1 1 11.2654 17.9228 36.8925 0.323676
2867 1 1 13.4918 1.04537 4.41847 2.95102
7422 1 1 12.0045 18.5469 5.61604 0.725442
867 1 1 15.608 18.6767 5.29443 0.992701
1007 1 1 15.7789 0.212838 3.30962 3.51232
772 1 1 15.8962 1.94353 5.22436 0.974964
126 1 1 15.3809 3.36043 1.90923 2.04751
194 1 1 17.6948 2.45566 4.63733 1.00734
3242 1 1 17.3611 0.916838 3.06442 1.9708
7937 1 1 0.562003 3.19849 5.25915 0.496057
633 1 1 5.33746 3.11117 4.20234 0.630833
1738 1 1 1.76811 2.75373 4.42969 0.969596
2030 1 1 1.77736 2.20541 6.15514 1.23935
1365 1 1 3.91041 2.11176 2.93393 1.02091
1309 1 1 6.58395 17.8485 3.04061 1.68518
1488 1 1 7.06415 1.97675 3.97138 1.14568
1543 1 1 9.18512 1.45436 4.11401 0.743182
1661 1 1 10.722 0.91368 2.3451 0.825515
7535 1 1 9.49959 0.0866103 3.20154 1.06774
189 1 1 7.3227 0.492035 3.90586 2.49119
2177 1 1 9.62565 1.4828 3.04223 1.86584
544 1 1 9.38295 2.93582 4.48664 3.10825
1044 1 1 12.6804 1.15996 1.35888 4.5082
742 1 1 12.8061 2.00703 3.41015 2.71336
3071 1 1 14.1401 3.2209 1.71767 0.257082
7830 1 1 15.7019 1.32648 4.17792 0.479451
1354 1 1 16.7154 1.40059 3.65829 0.395367
7758 1 1 16.7631 2.3629 4.1535 3.22269
7423 1 1 15.3474 17.2085 1.82491 1.97495
874 1 1 16.8543 3.25578 3.7096 0.417505
509 1 1 3.08408 5.59864 3.65559 1.16077
966 1 1 1.05316 5.77282 3.1454 0.265203
2033 1 1 3.29628 3.65219 4.25091 2.45526
2917 1 1 3.33886 6.17199 2.04052 2.55738
2559 1 1 3.43899 4.93974 2.54317 1.65844
7785 1 1 5.50209 3.58542 3.12255 1.12185
1348 1 1 6.89752 1.87423 2.7767 1.12572
7215 1 1 6.56425 4.09856 3.17058 2.64648
656 1 1 5.93088 1.65652 3.57207 0.534337
7924 1 1 7.85526 2.86096 4.04615 2.10231
661 1 1 6.92402 3.06044 3.03758 0.922039
1098 1 1 7.24445 2.76564 6.15963 0.838428
6477 1 1 7.76244 5.65495 5.1718 2.13971
1302 1 1 9.14726 5.37059 4.49665 0.639085
418 1 1 9.60919 4.0276 4.55418 1.30551
6060 1 1 9.90239 1.89943 4.61973 0.565383
6136 1 1 12.524 3.4582 4.93683 0.13698
387 1 1 13.1352 4.25533 2.34056 0.652548
7185 1 1 12.1399 2.84148 3.26944 0.16339
636 1 1 15.2948 2.46288 1.26942 1.05489
1539 1 1 15.6578 4.13381 1.16662 1.9451
1422 1 1 13.9786 3.9509 3.45401 0.665931
1041 1 1 15.6968 2.30745 2.77691 2.66799
2202 1 1 18.264 2.71422 2.53142 0.770912
7284 1 1 16.1664 6.78849 6.27566 1.20286
1374 1 1 1.90614 4.43432 4.18388 2.10714
7841 1 1 3.0033 7.2487 1.76784 1.98085
6026 1 1 4.01973 4.13024 3.61544 0.796187
3 1 1 4.25544 5.619 1.71095 4.93527
82 1 1 7.47935 4.51395 5.19246 2.32402
985 1 1 6.06312 5.42439 4.24143 0.195801
7123 1 1 7.22589 3.96314 4.17003 0.886583
533 1 1 7.15086 6.25066 5.88296 1.78762
214 1 1 7.66514 8.48379 5.53985 1.67613
7663 1 1 8.44288 4.09341 4.89429 1.02719
1291 1 1 10.7873 3.39404 3.25479 4.16669
7644 1 1 11.1015 7.02428 3.5608 0.390977
588 1 1 13.3666 3.27319 4.12787 0.783744
3586 1 1 15.1248 5.39567 3.27576 2.27621
7725 1 1 12.5234 5.35142 3.30623 2.4179
4139 1 1 0.298513 4.02918 4.77205 0.934155
928 1 1 1.05649 6.22355 4.26733 0.776346
7646 1 1 15.1234 7.28601 7.08929 2.2088
7992 1 1 18.7326 7.44948 5.22727 1.01094
1002 1 1 4.67732 5.83041 4.38571 0.515526
6804 1 1 0.2811 4.92372 5.4606 2.08801
2162 1 1 2.05459 7.33504 3.74068 3.83423
153 1 1 4.49635 8.1277 4.85404 0.919867
5747 1 1 7.67432 4.42773 2.85715 1.20663
2608 1 1 6.40325 6.87002 3.20009 3.0603
117 1 1 8.75936 6.45913 4.7142 3.39665
2311 1 1 4.63566 6.74794 5.45403 0.782728
7683 1 1 7.28671 7.24477 4.48298 1.04819
2589 1 1 8.07841 7.18021 5.2868 2.92426
553 1 1 10.3316 5.74044 4.24802 0.680084
7782 1 1 12.3805 5.40594 4.8557 0.92499
1784 1 1 12.0897 7.28555 2.07994 2.67145
1460 1 1 11.3654 6.52407 5.01997 2.92322
1927 1 1 13.9024 5.0116 5.58315 0.31916
591 1 1 13.8635 6.13275 5.98305 2.95911
240 1 1 15.0077 5.62131 5.1439 1.14278
102 1 1 16.4792 6.85078 4.00994 0.287447
2798 1 1 16.0242 7.449 4.76313 0.138986
1728 1 1 0.15141 8.77836 3.88249 1.61261
107 1 1 1.14083 9.38457 4.27952 2.0079
667 1 1 16.2451 9.47114 4.94784 1.12245
7242 1 1 3.02238 7.82234 3.54165 0.384403
7641 1 1 0.327726 9.30684 6.91616 0.520194
925 1 1 2.6698 8.26583 4.87941 0.280005
1717 1 1 3.62396 6.96341 0.943947 2.96533
5817 1 1 4.30461 8.09672 1.85415 0.394372
1217 1 1 8.5423 8.46216 1.40919 0.492925
404 1 1 3.55351 8.74163 5.21309 1.15035
1194 1 1 8.85736 10.1045 4.21153 1.63209
604 1 1 10.9917 6.59602 2.62347 0.646221
345 1 1 7.83998 9.95147 3.6939 1.27521
7538 1 1 11.0214 8.62931 3.52492 4.17693
7322 1 1 10.9135 5.46574 2.74283 1.50985
216 1 1 10.4593 9.41243 4.17044 2.34074
1069 1 1 9.88857 7.89568 2.64723 2.89618
557 1 1 11.2419 8.45159 1.88597 1.84002
1833 1 1 11.5638 8.31324 4.24575 0.372611
7739 1 1 13.0054 9.4392 4.27543 2.11167
6619 1 1 13.16 6.26253 1.74239 2.63404
7756 1 1 13.4023 8.24251 6.2626 2.5057
7983 1 1 18.0651 6.42864 5.04285 4.88399
957 1 1 14.8126 5.37174 6.12183 0.793752
622 1 1 16.2022 7.6024 2.57591 1.21985
7795 1 1 15.7909 9.97112 2.97656 0.525247
2151 1 1 15.9811 8.68622 3.65183 0.520131
230 1 1 18.3831 8.30594 4.77728 0.395849
765 1 1 1.84739 9.75758 5.68535 0.157347
626 1 1 4.08744 7.05013 7.68373 0.0452614
478 1 1 4.64402 10.8063 5.60261 1.4102
842 1 1 5.26207 7.81286 3.62559 0.728932
7472 1 1 6.99992 6.012 3.25866 1.23837
983 1 1 5.64947 7.60876 5.42813 1.78329
1105 1 1 10.7006 12.1142 3.37795 2.15385
3068 1 1 11.5334 9.34779 4.17394 0.656212
3406 1 1 12.1926 11.1461 0.697407 0.692837
1802 1 1 13.8356 8.3659 4.2656 1.39351
2578 1 1 14.4549 11.5186 4.17921 0.243971
1250 1 1 13.9014 8.35882 5.39428 1.61843
7470 1 1 16.0988 13.4564 3.06897 4.57844
1184 1 1 15.2963 9.96771 4.04054 0.766355
1677 1 1 16.0518 8.98453 2.65949 2.58124
1287 1 1 18.1412 9.8929 2.95965 1.62516
1082 1 1 2.05761 10.7484 6.1321 2.98755
1709 1 1 17.6351 9.35323 4.34392 1.95477
369 1 1 1.95442 11.6932 4.47436 0.125777
203 1 1 1.36989 12.7923 4.15564 2.07994
7541 1 1 3.58468 14.5327 6.26785 3.42626
834 1 1 1.37569 11.2819 5.30183 0.648215
134 1 1 5.41452 11.4607 4.41121 5.30233
6842 1 1 4.93108 11.7619 5.76716 1.1025
6975 1 1 6.2326 13.5525 4.60228 0.356738
970 1 1 6.82059 13.6303 1.59932 2.13308
1475 1 1 7.24512 8.60262 4.55867 0.702144
95 1 1 7.26466 11.7645 2.47819 3.6135
1968 1 1 9.85352 11.6233 3.69765 0.641431
6693 1 1 11.2114 13.0864 1.87843 2.60999
7798 1 1 11.3924 11.2489 2.9044 3.55959
7531 1 1 11.9178 13.7438 3.3037 4.36535
7156 1 1 10.8563 10.7981 3.7151 0.740962
1848 1 1 11.6001 11.7794 5.17076 1.55347
38 1 1 14.9669 10.5744 3.01157 0.615789
1072 1 1 15.2206 12.9134 3.59035 2.69111
2638 1 1 17.8245 12.0829 2.96132 5.47709
1438 1 1 16.5242 10.9484 3.70214 0.642203
6563 1 1 2.64026 11.6539 2.27086 0.721599
1836 1 1 17.2328 12.6611 2.18377 0.495675
1793 1 1 0.759106 12.2581 0.771225 8.86472
259 1 1 1.03289 13.8788 3.6509 0.889962
178 1 1 2.42251 12.3175 3.36598 2.93272
840 1 1 4.34042 13.0823 4.28204 4.90104
1264 1 1 6.00448 12.0979 3.83169 2.57503
487 1 1 8.11628 12.5243 3.59583 0.372019
7139 1 1 7.76488 10.6581 2.76165 1.10181
630 1 1 8.41652 11.0271 2.04852 1.34249
3108 1 1 13.6092 13.9857 37.4721 0.608414
7834 1 1 11.6878 11.445 1.66267 2.23441
1904 1 1 13.8778 13.0503 4.81451 1.09512
1799 1 1 13.9773 12.7162 5.95607 0.580547
451 1 1 15.2754 12.4424 1.07997 4.07363
1187 1 1 15.1374 14.751 4.43266 1.54746
7089 1 1 18.3781 13.4199 2.30164 2.46405
7670 1 1 16.098 14.8724 4.7495 0.250851
5605 1 1 1.91334 16.2278 3.75979 0.105542
6665 1 1 4.78451 12.0452 3.45091 0.98444
245 1 1 4.76925 13.1104 2.98591 3.79384
7811 1 1 4.55119 13.9254 3.59512 0.661415
481 1 1 6.99144 14.869 1.31968 0.0481563
844 1 1 6.46625 15.3176 3.27205 4.17874
885 1 1 8.32705 14.9475 3.63854 1.32106
53 1 1 7.51374 12.5399 4.63284 1.61844
221 1 1 10.0982 12.538 2.5737 1.80133
1295 1 1 9.77447 10.6097 3.67363 6.53443
734 1 1 10.4731 13.986 5.93228 0.403425
7893 1 1 12.7837 13.5305 1.98641 1.85239
7040 1 1 13.4119 12.7947 3.53035 3.33793
7551 1 1 12.41 13.7091 5.99457 1.05059
7180 1 1 13.3546 13.5685 5.66329 0.0514529
1200 1 1 13.5156 15.6179 3.69177 3.85189
888 1 1 16.3689 13.904 4.95975 2.18971
1676 1 1 1.50032 15.6484 2.02604 2.77901
854 1 1 17.6447 14.3422 4.77919 0.0979708
6762 1 1 17.9239 14.2209 3.06667 2.26478
1340 1 1 1.35162 15.2256 3.28748 0.73957
7826 1 1 17.7866 15.7423 2.81194 1.64306
642 1 1 2.53763 16.0676 1.49534 0.217271
7840 1 1 2.97427 14.6999 1.9319 1.31627
7051 1 1 3.64861 15.936 6.6475 1.26468
480 1 1 3.45162 17.4274 3.54905 1.14082
1505 1 1 5.96071 15.1047 4.27839 0.340345
1128 1 1 4.68969 15.9786 1.95318 0.567612
7174 1 1 4.9645 14.7332 1.40861 1.48676
800 1 1 6.92255 15.4378 4.40065 1.43353
1930 1 1 7.26025 15.7766 5.47551 0.335527
1940 1 1 9.75394 11.1481 2.36967 0.692798
6946 1 1 12.4786 15.294 4.07149 3.8432
7678 1 1 7.04653 13.6634 2.70778 1.39592
7856 1 1 8.98366 14.1977 4.78157 3.63729
3078 1 1 14.3813 14.189 4.63517 2.75434
433 1 1 8.56278 14.4852 2.74575 0.173979
1167 1 1 12.3429 13.4552 4.3413 2.88108
6590 1 1 12.5389 17.5703 5.64572 2.80915