ITEM: TIMESTEP
4400
ITEM: NUMBER OF ATOMS
8000
ITEM: BOX BOUNDS pp pp pp
0.0000000000000000e+00 1.8820720577620570e+01
0.0000000000000000e+00 1.8820720577620570e+01
0.0000000000000000e+00 3.7641441155241139e+01
ITEM: ATOMS id mass type x y z v_temp
7088 1 1 17.6487 17.7319 37.0711 2.44007
677 1 1 0.974322 0.944981 0.897698 2.41405
6814 1 1 5.08669 0.966383 2.31188 0.95746
2103 1 1 6.84717 18.5336 2.9929 2.46039
1134 1 1 7.6776 2.2157 0.41737 0.386299
6551 1 1 9.93435 1.66318 0.666916 4.33936
1588 1 1 11.9963 2.87307 1.03343 0.72441
6121 1 1 10.5023 17.7231 0.282736 2.30471
94 1 1 11.6287 17.6506 0.353841 2.44682
1044 1 1 11.5268 0.797936 37.3843 1.12197
7796 1 1 11.9872 0.0697925 0.318691 2.14109
7301 1 1 13.4276 1.39423 0.913046 0.684917
7423 1 1 14.651 0.842641 0.987412 2.79796
7960 1 1 15.7922 0.978246 1.6996 4.04621
1479 1 1 16.1885 17.9876 37.4995 2.64202
2221 1 1 16.436 1.47751 0.316951 0.898897
5355 1 1 1.18616 2.90287 1.85118 2.08256
859 1 1 2.23687 1.61406 0.78326 1.17607
776 1 1 2.45299 0.546437 0.179805 0.120008
6494 1 1 5.7873 3.91151 0.500138 1.76204
7412 1 1 4.37363 2.64635 0.804661 0.868861
2824 1 1 3.29819 1.8055 1.29114 2.52085
7604 1 1 6.91062 1.5336 37.5841 0.611501
7653 1 1 4.44162 1.92985 36.6816 1.02187
1266 1 1 6.33764 0.889337 2.88101 0.0921861
175 1 1 5.88838 1.13678 0.984714 3.788
7032 1 1 9.96749 2.8136 0.332125 0.252367
437 1 1 8.47428 18.1937 1.57339 2.41725
1563 1 1 13.0165 2.28935 1.24186 0.337436
7431 1 1 11.2864 2.88601 2.05679 1.35384
1806 1 1 12.6188 2.95895 37.2994 1.55052
350 1 1 13.822 2.79753 36.5596 1.00448
828 1 1 12.961 3.2826 36.2033 0.20672
636 1 1 14.008 1.64629 1.76447 1.87948
1183 1 1 16.4036 3.30522 1.12444 2.43578
877 1 1 15.6162 1.8967 1.31203 2.20524
6845 1 1 16.8582 2.09765 1.05466 1.84153
2202 1 1 1.53709 2.13445 1.3623 3.08165
791 1 1 2.76242 3.56355 3.27371 1.85758
6006 1 1 4.48053 0.935108 1.01167 3.59611
314 1 1 2.15308 5.86784 -0.00673223 0.705062
406 1 1 5.14675 3.40809 36.9317 0.507889
367 1 1 2.94708 0.803567 36.8475 1.75379
6777 1 1 4.68568 3.73265 0.319655 2.33864
324 1 1 5.33397 3.0654 1.10865 2.01104
454 1 1 9.23768 3.56048 36.5154 2.92053
1085 1 1 6.78582 1.98725 0.84104 2.32953
5462 1 1 7.17597 3.86468 1.52898 4.17226
2244 1 1 11.3767 18.3253 37.044 2.7136
285 1 1 10.1379 3.31806 2.04949 2.05478
7115 1 1 12.657 5.07843 35.7989 2.03164
7155 1 1 14.7421 4.80308 37.4248 1.15553
430 1 1 13.8483 3.57818 0.917138 4.0474
7392 1 1 15.0926 1.99962 36.5598 0.328367
7440 1 1 18.2144 4.15568 1.797 5.53952
7660 1 1 1.67594 4.74944 1.53843 1.74395
190 1 1 2.64489 5.017 0.852602 0.429832
7346 1 1 1.62782 3.80997 1.02168 5.377
1562 1 1 2.13523 7.14066 0.686637 1.69803
733 1 1 3.94567 5.12928 0.219851 0.998368
7260 1 1 3.70209 4.25636 37.5662 0.337528
7564 1 1 8.76908 4.47545 0.301111 1.72382
7450 1 1 10.9962 5.4834 0.526208 1.86464
973 1 1 11.8748 3.72053 2.22678 1.64774
5741 1 1 11.9515 4.84407 1.11159 0.127887
6949 1 1 12.2262 4.78926 2.09764 1.76356
6997 1 1 13.8076 3.41242 2.53611 0.720521
7544 1 1 16.4288 4.46149 34.4389 1.4854
7273 1 1 17.543 4.28307 37.4016 0.351486
552 1 1 16.5089 5.16253 1.15615 0.904141
137 1 1 18.4081 5.19527 1.69578 0.503845
1020 1 1 0.765347 4.56664 0.678789 1.78456
7594 1 1 17.9769 4.743 0.937519 1.30446
1037 1 1 1.53414 8.17582 1.32316 0.361171
7965 1 1 0.604828 6.74992 0.72652 0.94269
1714 1 1 2.68022 5.39288 36.453 1.48915
762 1 1 1.10798 8.79275 0.617699 1.07039
135 1 1 5.14733 4.63955 0.792495 3.23573
7703 1 1 6.36389 4.66432 0.995426 0.928959
6441 1 1 8.40432 8.00301 2.21031 0.584477
1296 1 1 8.89865 5.40042 36.9862 1.54576
187 1 1 8.56554 5.0246 2.02974 1.19509
997 1 1 8.82143 6.61901 1.56635 1.66826
5812 1 1 12.5995 6.10723 0.888616 0.202291
1784 1 1 12.124 3.59117 0.397575 0.762659
2197 1 1 14.9714 6.98568 1.75161 0.427174
469 1 1 15.3254 6.27614 0.723358 0.104641
6476 1 1 14.0525 5.71571 0.915333 2.92098
7318 1 1 17.288 5.3258 0.1152 0.646841
6561 1 1 17.8223 6.29219 1.62935 2.03862
7844 1 1 1.01507 5.90258 0.0324169 1.39879
205 1 1 1.49999 9.14476 2.05661 0.608954
7570 1 1 0.594472 7.86513 0.848193 1.30518
357 1 1 2.76183 8.54139 1.79713 0.9686
750 1 1 2.90508 9.26473 3.22566 0.628111
922 1 1 5.91858 8.432 0.853103 1.20723
174 1 1 4.92269 7.10536 2.20733 0.072893
7738 1 1 6.67813 8.89212 0.00616805 0.343112
1681 1 1 8.84343 7.99483 0.35009 0.367971
1001 1 1 8.97571 9.06587 1.13619 0.259479
7573 1 1 9.19294 6.69167 37.1731 0.80839
6907 1 1 9.52997 7.74501 1.36175 0.489838
7913 1 1 11.0964 7.57355 0.415113 1.36784
7548 1 1 13.5661 7.43769 1.12736 1.27323
79 1 1 15.157 7.26545 0.0789425 0.385715
7411 1 1 13.3 6.61457 36.4406 0.81858
669 1 1 13.6611 6.79476 2.03878 0.303292
6959 1 1 15.6214 8.33599 36.9753 0.121443
7424 1 1 16.5609 7.07474 37.3733 3.81445
1401 1 1 17.5274 7.25938 0.55053 0.121304
875 1 1 16.8203 6.19827 0.889406 1.34933
6828 1 1 0.656653 7.20871 1.64264 0.636078
1596 1 1 1.62642 9.43453 3.01535 0.556848
6343 1 1 1.71873 9.38588 36.8076 1.29234
6767 1 1 3.32291 9.79211 1.20505 0.428368
7846 1 1 2.01072 10.4073 36.9204 0.416943
86 1 1 3.6723 8.79766 0.417525 0.33797
7144 1 1 4.32706 7.78369 37.6418 3.11452
7513 1 1 5.78438 7.78718 1.98621 2.00755
6380 1 1 7.91954 9.78673 0.28601 0.949989
6235 1 1 8.22541 8.34448 3.21828 2.17359
7002 1 1 8.53955 9.16414 36.9632 0.272266
7643 1 1 8.81674 10.5167 0.915234 1.51757
7019 1 1 9.32949 9.12564 0.200085 2.00707
7943 1 1 12.3547 7.79302 1.59225 0.768575
543 1 1 11.7101 6.93977 1.11673 0.447807
5838 1 1 15.7692 10.5373 37.3181 0.124505
1120 1 1 14.0704 8.80103 1.73099 0.266657
600 1 1 15.6325 9.09392 36.0232 0.451543
2072 1 1 16.7654 10.5961 1.12361 2.50424
5857 1 1 18.1183 8.06992 1.58963 1.43084
736 1 1 18.4001 7.80024 0.533015 2.23063
7397 1 1 0.620684 9.75737 0.787588 0.223099
7800 1 1 17.4642 6.65992 37.068 3.38085
7581 1 1 0.159309 8.73227 0.413146 2.04251
6599 1 1 1.48746 10.1346 2.2442 0.776118
7567 1 1 2.01249 12.5113 37.4196 4.20835
439 1 1 3.43173 10.2949 2.28907 0.38554
1172 1 1 5.03439 11.6586 1.06458 2.68629
191 1 1 6.29416 11.9318 2.26906 3.21847
7065 1 1 7.10926 10.1628 0.949302 0.699178
236 1 1 4.99392 9.65206 34.4404 0.904876
6933 1 1 6.74482 10.4807 36.2124 0.292961
238 1 1 7.10863 11.1785 1.21671 2.12528
574 1 1 9.1331 10.0017 37.1794 0.405375
6631 1 1 9.7524 9.78366 1.41158 0.910811
7949 1 1 8.16579 10.4603 36.9517 2.58557
3406 1 1 9.86727 10.3218 0.374984 0.6824
7834 1 1 13.7727 13.0584 1.28528 0.526819
1584 1 1 12 10.5032 37.1747 0.938862
932 1 1 11.878 9.56316 0.553242 1.73041
627 1 1 15.9151 10.0648 1.10203 3.53749
1438 1 1 17.8822 8.98768 1.6175 0.93098
6752 1 1 17.9642 8.92542 0.550156 0.411613
991 1 1 1.39686 12.3063 1.01718 0.562365
7555 1 1 0.161916 10.4405 1.50558 0.612141
1793 1 1 0.0324791 11.9181 37.5049 2.09931
962 1 1 2.26185 12.4976 1.75587 0.0621139
7060 1 1 2.46854 10.9414 0.795533 0.437671
340 1 1 5.63941 11.6783 0.0305674 1.73516
662 1 1 4.14687 12.2863 1.10936 0.557818
704 1 1 6.06925 14.5647 1.19882 1.31568
7351 1 1 8.61878 12.1848 0.354507 0.587882
2234 1 1 9.07001 11.7012 35.8876 1.06929
6693 1 1 10.4599 12.1945 0.0507327 0.966812
7749 1 1 9.26222 11.1395 37.461 2.05551
2320 1 1 8.8645 11.4141 1.24416 3.53392
6723 1 1 13.0631 11.3862 0.694768 2.55803
7497 1 1 14.6627 11.9963 0.285729 6.40651
1997 1 1 17.9617 12.0236 0.472756 1.43581
818 1 1 17.6829 11.9417 2.7202 2.00985
1399 1 1 18.5244 9.76573 0.370427 2.01212
924 1 1 18.153 14.4188 1.43435 1.14132
6411 1 1 0.92355 13.6923 1.37766 1.86733
6464 1 1 2.06177 13.2628 0.52333 3.82019
7248 1 1 3.24635 14.829 1.55822 0.319036
7404 1 1 2.6039 12.9701 2.91414 1.87537
7836 1 1 3.72247 13.8278 0.0680989 0.359226
7457 1 1 5.45351 12.716 0.316721 1.79445
7174 1 1 5.05146 14.9494 1.31483 1.23436
163 1 1 7.9708 12.8928 37.5796 1.44002
970 1 1 6.82243 15.3562 1.34428 0.66252
678 1 1 9.67039 13.9278 0.943671 0.946954
64 1 1 9.15522 12.865 0.807653 1.13345
6399 1 1 10.7682 14.1869 0.622123 0.324129
386 1 1 9.94595 13.3743 36.5253 1.46822
6873 1 1 10.2471 13.0795 0.623586 1.00525
830 1 1 10.0559 13.0913 1.78219 0.931581
2106 1 1 11.7283 14.6499 0.731431 1.42572
375 1 1 14.0554 13.5727 0.341971 1.56996
209 1 1 14.5294 12.2676 35.8843 2.11285
5900 1 1 13.0582 13.8575 1.42961 1.2776
1749 1 1 15.3124 14.6405 0.92972 0.388942
711 1 1 15.7961 13.205 1.01667 1.6757
7138 1 1 14.7613 13.0507 36.8762 3.05489
346 1 1 0.031398 12.5401 0.898719 0.373764
918 1 1 18.7719 13.6185 1.08248 0.190223
1136 1 1 0.495857 16.0571 36.9321 0.941706
6637 1 1 2.13531 15.5276 1.33346 1.41271
7957 1 1 4.20726 13.7711 1.72088 1.79649
642 1 1 4.31203 16.8616 37.4981 5.04863
639 1 1 4.12017 14.4883 1.02525 0.997822
569 1 1 6.5602 13.8199 0.242697 1.02371
6673 1 1 7.6876 15.3523 37.146 0.129334
1729 1 1 7.43944 14.2133 1.24124 1.72068
504 1 1 6.87836 14.3792 2.1913 3.78301
7736 1 1 10.4601 14.663 1.57797 0.93288
239 1 1 12.1628 12.2696 0.50838 0.658703
472 1 1 12.1554 16.0689 1.67573 3.78917
2373 1 1 12.6904 13.3071 0.501974 0.0402885
1186 1 1 13.3312 17.2087 0.0146572 4.45014
7011 1 1 15.9053 16.5884 0.729264 1.45884
7338 1 1 16.0165 15.1481 0.408989 1.14045
296 1 1 17.4697 15.2416 0.994466 0.49575
7977 1 1 1.45598 17.446 37.114 2.22013
7863 1 1 1.19379 16.7804 1.91319 1.55704
668 1 1 1.77624 17.2377 0.907415 1.18883
1634 1 1 1.29655 17.9272 1.69194 1.60398
7097 1 1 2.68771 17.1202 37.5545 1.37819
332 1 1 4.88826 16.1653 0.820731 2.74795
7300 1 1 5.60236 17.7324 37.3975 2.93465
7297 1 1 8.14141 15.2586 1.19352 0.401906
287 1 1 6.38348 17.0673 0.61624 2.21169
414 1 1 8.73288 17.5628 37.6088 0.560044
5509 1 1 9.5947 16.9851 37.4431 2.35699
1196 1 1 10.2821 16.6768 36.1954 1.01135
6228 1 1 11.5997 17.2078 36.711 1.00554
7568 1 1 13.7443 17.0819 36.196 1.25775
809 1 1 11.8592 15.6897 0.554783 5.3918
653 1 1 12.7242 17.2991 0.991417 0.124362
6982 1 1 14.4629 16.8314 37.0118 1.29967
2506 1 1 15.0896 17.3246 0.911154 0.720204
579 1 1 16.9818 15.5725 0.0637841 3.17253
273 1 1 15.3931 16.53 2.01193 3.37659
1216 1 1 18.0345 15.9871 1.66939 0.781346
328 1 1 0.671994 18.278 0.0776284 0.963785
647 1 1 3.04382 0.733754 1.70732 0.97812
1469 1 1 2.86325 16.0009 2.06805 3.8688
829 1 1 1.99027 0.336542 1.19339 3.91295
1573 1 1 5.82682 1.40996 37.6464 0.814846
758 1 1 4.91262 17.6977 1.78366 2.46517
6079 1 1 6.52794 18.0003 1.04948 0.841681
7613 1 1 5.98364 17.3308 1.8311 0.493956
6855 1 1 7.31522 0.96027 0.919049 0.32824
895 1 1 7.27498 18.7764 0.569067 0.963435
7452 1 1 10.5253 17.1204 1.31579 1.63534
7753 1 1 9.70193 18.1548 1.22502 1.37509
281 1 1 12.7843 17.9718 1.83537 1.00543
500 1 1 11.4599 16.8859 1.50213 1.34985
1413 1 1 14.1245 17.8015 0.936178 2.95188
7529 1 1 16.7647 0.411034 1.57361 1.1247
1999 1 1 18.2954 16.7521 36.8338 2.88912
1713 1 1 1.33924 18.2412 3.3491 2.21806
643 1 1 3.81868 18.7238 1.89047 0.282818
1509 1 1 1.90099 18.1492 0.67324 1.81748
2026 1 1 6.78704 16.2595 2.59218 0.132375
1365 1 1 2.49926 2.49979 1.42314 0.884647
104 1 1 3.61798 0.9465 2.64314 0.916192
1750 1 1 5.63672 2.63457 3.38593 2.35537
1348 1 1 4.41229 1.38907 3.40909 5.56799
6581 1 1 8.19759 0.636665 0.920108 0.677758
6040 1 1 9.2874 1.99816 2.88422 0.322926
1140 1 1 11.324 18.7492 2.26287 2.66405
7028 1 1 12.0185 1.70542 3.42872 0.596644
7340 1 1 12.6313 18.6959 3.66023 0.540493
7185 1 1 14.9025 18.4058 0.944176 0.0189442
1339 1 1 15.5978 18.7599 1.85929 1.63559
1973 1 1 15.7812 17.7189 1.65718 1.45112
1041 1 1 15.4932 0.292396 0.605587 1.91151
1511 1 1 17.9207 1.22811 2.44549 3.74804
1607 1 1 0.147084 2.15823 2.42066 1.75315
3242 1 1 0.579449 1.27486 3.20351 0.597816
508 1 1 17.935 18.7288 37.4143 2.98886
7679 1 1 0.300612 18.3957 1.16877 0.301767
1198 1 1 2.56294 0.874139 3.38406 0.911707
7718 1 1 2.24378 2.78055 2.69341 0.118649
7773 1 1 3.62985 2.77659 1.57313 1.12853
547 1 1 5.39921 2.04152 1.19997 1.52667
7751 1 1 6.92334 0.634138 2.08011 1.06745
6866 1 1 6.25622 3.73598 3.88218 0.280862
108 1 1 8.56811 2.71852 3.92243 0.715149
6363 1 1 7.5711 2.85774 1.52411 0.794989
1661 1 1 11.2039 2.06304 0.875738 2.33707
6659 1 1 12.6721 3.14629 2.12479 2.10248
6241 1 1 10.3892 4.43715 3.29237 0.52933
1007 1 1 12.2062 0.275016 1.34698 2.47484
3932 1 1 15.6745 3.88089 2.93193 0.977625
1928 1 1 16.4015 0.161831 3.08351 0.1941
3225 1 1 14.165 1.27743 3.77415 0.176942
1591 1 1 16.6046 3.63732 3.64897 0.77347
1672 1 1 18.7581 0.691903 0.912039 0.836706
31 1 1 2.43226 3.51995 2.03287 0.262179
2558 1 1 0.693728 4.30044 3.48465 1.33822
1045 1 1 2.86961 2.79534 0.457218 3.2408
6026 1 1 3.68534 4.12545 3.67748 1.96097
7785 1 1 4.31737 3.29256 3.00588 0.214707
6083 1 1 6.30866 2.96559 1.52124 2.15435
6605 1 1 5.39177 2.31794 2.26872 1.29849
7625 1 1 7.57238 4.81748 2.40528 1.53749
593 1 1 8.00134 2.24696 2.65731 0.613061
1381 1 1 8.60495 3.37596 0.566691 2.85462
354 1 1 9.05571 3.94323 1.25677 1.00534
7094 1 1 11.9083 6.09933 2.50379 3.03235
7719 1 1 9.79897 1.56622 1.99263 1.2375
726 1 1 13.6811 2.23032 2.98385 0.532268
1270 1 1 15.0087 3.12718 2.54345 0.765689
3071 1 1 16.5248 2.58943 2.35149 1.54356
874 1 1 18.2002 5.59753 2.60808 2.23562
7697 1 1 0.479581 3.03376 3.05914 0.12183
6423 1 1 17.4895 2.86333 1.51994 1.5011
982 1 1 1.94628 4.3748 2.89244 0.722114
602 1 1 2.04826 5.7751 1.92802 1.31515
1310 1 1 2.76347 4.49806 1.85899 4.04743
1717 1 1 3.87851 4.83437 1.17708 4.73148
1279 1 1 4.49226 3.74343 1.56342 2.28287
7879 1 1 3.44483 5.30903 3.88157 0.731214
7612 1 1 5.02714 4.75079 4.02371 3.13544
1273 1 1 4.10636 4.47911 2.90308 1.13937
6424 1 1 5.92816 3.96731 1.73276 2.29735
1237 1 1 10.4036 4.51479 0.78888 0.911034
604 1 1 9.20488 4.37742 2.19648 0.628757
7466 1 1 12.7999 5.40058 4.031 1.80444
742 1 1 15.9773 5.54056 4.01643 0.502937
7468 1 1 16.1744 4.58414 2.09187 2.45873
126 1 1 15.5112 3.35896 1.74275 0.67787
1539 1 1 15.5206 5.55444 1.34099 0.859638
1648 1 1 15.478 5.93328 2.46834 0.426618
7633 1 1 17.958 6.0985 3.68879 0.96671
6640 1 1 0.244953 5.28398 3.23985 1.16893
1715 1 1 0.3546 5.67922 1.401 1.02902
966 1 1 1.55725 8.07128 2.59324 1.63171
7944 1 1 2.91556 6.89549 1.56936 1.07035
6987 1 1 2.76412 6.22049 0.79647 2.31641
2559 1 1 3.5397 7.79661 2.50027 4.60962
6815 1 1 4.78648 6.84732 0.0696378 3.69033
615 1 1 3.84517 6.93828 1.34547 0.277082
2608 1 1 7.71904 5.73099 1.94186 0.609896
7472 1 1 6.71907 5.21032 1.93797 1.52424
7482 1 1 10.2123 5.54155 3.4184 1.98753
1224 1 1 11.3721 6.98725 3.22171 1.19616
1790 1 1 13.1359 6.12531 3.38599 2.69799
277 1 1 9.19305 5.21789 2.84965 2.41519
6497 1 1 7.70581 7.63332 1.44442 0.632344
6044 1 1 13.6972 4.36179 1.78743 0.0867691
1537 1 1 13.8354 5.87681 2.74425 2.14462
486 1 1 10.6072 6.76189 0.895555 1.93105
374 1 1 14.721 4.24717 2.56807 1.75571
1377 1 1 14.5385 5.67932 2.14747 0.94594
223 1 1 14.3757 7.61974 2.20034 0.895336
651 1 1 16.2139 6.4161 1.71344 0.778382
235 1 1 16.8933 6.10073 2.57928 0.371484
573 1 1 0.0473203 6.79975 2.92277 2.29869
7358 1 1 2.50081 7.99638 2.79457 0.668362
5817 1 1 3.1726 9.15742 4.19018 0.390045
158 1 1 3.86753 8.58567 3.32772 2.61147
842 1 1 4.6902 7.22788 3.32324 0.718421
1751 1 1 6.71885 7.29066 1.38562 1.94927
6253 1 1 9.0121 6.80695 3.62653 1.05422
8000 1 1 6.42807 4.06177 2.74673 3.49745
1069 1 1 6.48387 9.24371 1.52961 1.13954
1217 1 1 7.86655 8.95732 1.01549 1.04642
2054 1 1 10.4594 9.54529 2.45208 2.24883
7644 1 1 9.32203 5.83549 1.82771 4.35906
21 1 1 10.6987 7.39777 1.9931 0.920191
675 1 1 13.1613 7.69625 3.46191 0.676041
1193 1 1 15.2481 7.80391 0.903454 0.184006
498 1 1 14.5991 9.12323 3.93129 0.0769808
140 1 1 14.9858 8.35019 2.00966 2.96081
550 1 1 15.4597 9.11336 0.400548 1.16157
2587 1 1 16.4933 9.71508 37.1038 1.50264
622 1 1 16.0842 7.98728 1.65166 0.253164
645 1 1 18.4567 7.13114 1.95378 0.596223
6675 1 1 17.69 6.74437 2.76415 2.63553
7966 1 1 0.372442 9.31941 2.18071 2.5575
1290 1 1 2.6837 10.418 1.64323 1.2157
7803 1 1 3.90637 8.59093 1.40406 3.65267
7731 1 1 4.46595 8.5843 2.37503 1.8883
7841 1 1 2.77144 11.2427 2.6651 1.48973
6578 1 1 5.80676 8.97956 2.26094 0.216162
1264 1 1 7.97196 8.46693 0.0148409 0.46263
6665 1 1 5.45877 9.50103 1.46462 4.65545
7721 1 1 7.72602 9.69474 1.77522 0.316601
568 1 1 9.97972 9.72359 3.32043 1.54559
610 1 1 7.54101 7.55204 2.78333 1.44651
955 1 1 11.3184 8.1979 2.79042 0.907457
738 1 1 14.2755 9.80629 2.94419 2.76176
6686 1 1 14.1287 9.73234 37.4906 0.923561
7634 1 1 13.0192 11.7403 3.81506 0.764459
7795 1 1 17.9342 10.8668 0.955863 0.920644
38 1 1 16.6651 9.60073 1.79516 1.10766
423 1 1 16.963 8.65803 2.40151 1.339
7432 1 1 15.9463 8.73912 2.67334 0.717584
1360 1 1 18.7938 8.40355 3.51979 2.71368
3472 1 1 0.633538 10.9574 2.71859 0.773809
1677 1 1 0.508751 8.49246 1.71907 0.564335
663 1 1 17.9991 8.75969 2.65976 0.276096
7851 1 1 1.32697 12.8505 2.91816 0.94548
2638 1 1 1.37737 11.8638 3.61979 0.890352
1917 1 1 2.27562 12.3523 3.67512 4.34665
1318 1 1 3.33337 12.3019 3.06625 1.44718
452 1 1 3.9421 11.1348 2.99172 2.36356
2357 1 1 4.4221 7.70003 1.42913 0.63448
1863 1 1 6.38248 12.8558 0.594166 0.399502
630 1 1 7.98525 11.8335 2.11597 2.45905
1968 1 1 9.75156 10.7306 4.06441 2.18733
1504 1 1 11.1551 9.71744 3.4309 1.15539
2150 1 1 11.8813 9.17436 2.20158 1.144
708 1 1 14.7369 10.7471 0.939564 5.76042
201 1 1 13.7562 11.7859 2.96382 2.87874
969 1 1 17.1977 10.5234 2.04648 1.58206
1143 1 1 18.2564 11.4123 1.83349 0.738403
7128 1 1 0.671283 12.8946 3.66486 2.71768
300 1 1 1.68476 11.1966 2.43881 1.91733
7729 1 1 18.7573 14.939 3.32145 1.20605
1727 1 1 3.72379 13.0472 3.71795 3.55207
133 1 1 4.9255 11.7495 2.53651 1.35856
1528 1 1 6.36554 13.0062 2.72031 1.82706
945 1 1 6.05437 11.8271 0.962401 1.28867
1210 1 1 6.14554 10.9497 2.8233 0.526727
6584 1 1 7.29389 11.9454 3.05675 0.962079
342 1 1 8.87754 12.6798 2.51286 0.739905
1385 1 1 11.4348 10.3125 1.25656 0.0440887
433 1 1 12.3529 10.5436 0.691386 0.188585
6939 1 1 10.5659 11.1808 0.825732 0.472638
778 1 1 10.9284 12.4955 1.38662 2.72514
6567 1 1 15.0088 12.199 4.17142 0.528751
7893 1 1 11.9979 11.2734 1.56627 1.73967
596 1 1 16.2428 12.7889 3.07648 0.0534296
1189 1 1 16.293 11.8296 1.45317 0.455658
7089 1 1 16.3157 13.4286 2.08338 0.589263
1836 1 1 17.3023 11.6018 1.60127 0.0961238
1280 1 1 18.6436 11.333 3.01671 2.59681
259 1 1 0.277267 13.613 2.37845 2.28145
7047 1 1 1.8781 14.6868 37.0538 0.724759
234 1 1 3.15094 13.858 1.94984 0.411483
1448 1 1 0.567918 14.5863 2.53266 1.23082
7961 1 1 5.66298 13.1327 1.2949 1.64624
6379 1 1 5.19419 13.9369 2.58168 0.276038
299 1 1 4.61565 13.3524 0.724542 1.17753
481 1 1 6.29701 14.234 3.24352 2.05588
7678 1 1 7.75112 12.9161 2.82148 0.778792
7035 1 1 8.38074 14.8727 3.73331 1.56023
769 1 1 9.91269 11.6187 3.63665 1.89572
7266 1 1 12.2608 12.1144 2.55462 1.04998
7856 1 1 12.1636 12.3217 1.62962 0.292943
338 1 1 12.7622 15.2708 1.6991 0.799061
1617 1 1 13.6102 11.5872 1.75971 1.03724
1017 1 1 14.9365 12.511 1.31849 0.871334
629 1 1 16.0744 14.609 2.03128 1.13336
7999 1 1 17.3851 13.084 2.54727 2.63917
255 1 1 16.9655 13.5507 1.18962 1.53944
2974 1 1 17.6593 14.5251 2.39621 1.18201
6833 1 1 17.9198 12.7888 1.28847 0.718745
1042 1 1 0.289737 15.3225 0.21855 1.2947
7772 1 1 0.804812 15.7186 2.39396 0.0706325
1340 1 1 1.36157 16.4757 3.2146 4.26328
6459 1 1 0.204318 16.931 2.52386 1.13337
1676 1 1 0.811718 14.6942 1.36465 0.149064
4804 1 1 2.25426 14.2411 2.44923 1.17915
1651 1 1 5.63637 15.2975 2.45943 0.0598941
7405 1 1 7.67285 15.1231 2.23734 1.16209
1416 1 1 8.97908 15.8013 37.2307 0.845886
6321 1 1 8.8696 16.9267 1.86285 1.1583
815 1 1 7.46419 13.921 4.05183 1.04059
2347 1 1 11.2003 13.3658 2.27251 0.63313
2046 1 1 11.2032 14.5008 2.2852 1.17978
7950 1 1 13.9916 15.9687 3.81498 0.529378
1077 1 1 12.8609 16.226 2.88972 1.24089
89 1 1 11.2015 15.5007 1.73917 1.59228
7444 1 1 13.4719 14.3503 4.89786 1.4718
1269 1 1 14.3597 16.4901 1.40576 1.34625
1110 1 1 13.8032 14.3497 3.23057 2.40929
336 1 1 14.5501 15.3419 3.22692 1.64241
1614 1 1 13.6847 14.4713 2.01149 1.40233
1170 1 1 16.5768 14.4961 1.10661 0.49791
1367 1 1 16.3582 15.7802 1.1459 0.273657
1984 1 1 18.5587 15.1176 2.04586 0.541814
1652 1 1 18.1432 17.0151 3.27498 0.83471
5605 1 1 0.804012 17.3413 3.67559 0.962261
157 1 1 1.27405 16.26 4.46639 4.50458
549 1 1 0.212942 17.0834 0.667267 1.03476
1128 1 1 4.37849 14.3443 4.88126 0.748925
3499 1 1 3.25022 16.0765 0.183905 2.53553
6280 1 1 4.25912 15.1387 1.90864 2.53259
687 1 1 7.58241 14.2245 2.99767 4.5032
7303 1 1 5.37078 16.9087 2.59917 0.845724
6688 1 1 6.99658 16.4752 1.50778 0.109532
898 1 1 10.1037 14.5133 2.63958 0.0243033
1453 1 1 9.89203 16.3062 0.947744 3.23454
6582 1 1 10.494 17.1185 3.129 0.555496
343 1 1 13.2086 16.271 1.11109 0.712166
990 1 1 13.9286 17.2595 2.14698 1.43615
1139 1 1 14.0255 15.7221 2.19921 0.739609
1604 1 1 15.0582 15.8989 4.00522 1.8602
1070 1 1 15.7732 16.5185 3.18109 0.772692
7826 1 1 18.3047 17.5991 1.57891 2.0985
7847 1 1 17.4178 16.7843 1.31068 1.74869
7951 1 1 3.9724 18.3992 2.93451 2.45862
18 1 1 18.4794 0.0187667 2.24416 1.03257
7454 1 1 2.15435 16.873 2.14296 0.302941
531 1 1 4.13357 17.0565 2.66793 0.261322
1147 1 1 5.89735 17.7558 3.04455 2.26915
1466 1 1 8.49166 17.4692 2.84829 0.614892
490 1 1 7.48163 1.62229 2.07219 0.807248
32 1 1 7.77043 17.3738 2.07936 1.0235
62 1 1 9.32515 15.5029 4.00066 0.252423
961 1 1 10.2383 18.2955 2.67971 0.774052
7821 1 1 9.4822 18.2777 3.35677 0.346297
55 1 1 12.9017 16.9626 2.01116 0.295727
1616 1 1 11.2635 17.8943 3.37831 1.41696
505 1 1 11.0094 16.5515 0.336488 0.232457
2348 1 1 14.8241 17.5222 2.02929 4.40855
409 1 1 13.101 18.2796 0.397024 1.69008
6824 1 1 17.3816 18.7012 4.46609 0.727412
670 1 1 17.6488 17.5896 2.55311 1.84237
6430 1 1 18.2906 18.148 0.645383 1.32596
7434 1 1 17.201 2.1503 4.47074 1.78608
910 1 1 18.484 2.61135 4.5112 0.442293
7947 1 1 1.65093 1.57594 2.8555 3.2312
7451 1 1 0.636014 0.177978 2.90533 4.70552
1902 1 1 3.0474 1.87595 3.49312 1.49527
2365 1 1 5.76186 0.363725 1.59454 1.52533
656 1 1 6.3757 1.97461 4.50102 0.490136
902 1 1 4.99323 1.79359 4.46733 1.17116
7818 1 1 10.8496 18.6933 5.01537 3.10973
1781 1 1 9.07303 18.2909 2.40901 0.309589
676 1 1 8.99357 15.0255 1.71393 1.87454
2204 1 1 10.7606 0.996516 1.55489 1.34851
2208 1 1 11.53 18.8005 5.80492 0.141584
164 1 1 11.0792 1.00831 4.10138 1.48378
147 1 1 12.2203 17.5948 3.50733 1.46644
1473 1 1 14.322 18.4199 1.93182 0.574483
7669 1 1 14.8076 0.661544 2.56901 0.336691
807 1 1 16.8674 0.906101 3.94759 2.64962
7830 1 1 16.8684 1.15288 2.12715 3.22426
881 1 1 17.8313 1.72971 3.39301 2.96735
2134 1 1 18.7276 2.20316 3.56359 0.509514
1909 1 1 1.33899 1.22693 4.10329 3.12563
2066 1 1 0.662253 2.37277 4.15432 3.57485
7188 1 1 1.75407 4.31548 4.9422 2.30773
1654 1 1 2.74268 1.7565 2.41149 0.912378
686 1 1 2.477 4.65998 4.06205 2.73068
96 1 1 2.88593 3.69363 4.74845 0.307591
1322 1 1 4.20376 1.87582 2.03335 0.784546
148 1 1 4.0544 2.47122 5.2742 4.59974
729 1 1 3.24313 3.04676 2.55421 2.71332
6922 1 1 9.51409 1.69207 4.33305 1.33951
1543 1 1 8.82607 0.208268 3.49415 0.101787
7934 1 1 6.82689 2.2453 2.44308 0.926329
544 1 1 9.01966 1.47431 1.32293 0.818398
6942 1 1 8.30884 1.29817 3.8867 1.86601
61 1 1 9.86026 0.359207 2.63941 1.54489
1291 1 1 11.0652 1.05721 5.40698 3.2033
822 1 1 13.6674 18.0974 3.21401 1.65922
479 1 1 12.2746 2.43601 4.66409 1.48005
1239 1 1 14.5875 3.12673 3.61285 0.570735
149 1 1 16.9832 2.25153 3.40712 1.35851
772 1 1 16.2265 1.58187 2.8065 2.7356
1826 1 1 13.4939 2.3574 4.2626 2.21567
519 1 1 15.6489 2.28411 3.11325 0.142103
914 1 1 17.2299 4.9003 3.60689 0.45317
1354 1 1 17.4712 2.15 2.33209 1.61142
965 1 1 17.7428 2.85016 5.31303 1.07924
7887 1 1 0.66418 3.59716 1.15426 3.95838
845 1 1 1.34521 3.49485 4.1031 2.047
1738 1 1 1.95189 2.32072 3.71691 3.18923
109 1 1 1.76743 7.77182 3.57275 0.716632
692 1 1 4.26453 3.90474 5.16455 0.929194
7366 1 1 4.41673 3.44223 4.06948 0.879292
7215 1 1 5.09489 3.30059 2.14873 0.164312
7861 1 1 7.82115 1.81951 4.92755 0.677036
125 1 1 7.37132 4.24288 3.2834 0.569306
5799 1 1 10.874 1.84691 2.91535 0.844126
1302 1 1 9.45682 4.66528 3.67302 0.735522
2191 1 1 12.5003 2.79108 3.44821 1.94953
7322 1 1 11.5213 2.92829 3.80644 0.377672
7532 1 1 13.4771 2.24954 5.29343 0.562705
98 1 1 12.7783 3.29041 4.98786 1.04376
1450 1 1 14.9064 3.35491 4.74134 0.646618
7758 1 1 16.5483 2.87174 4.74217 0.413123
588 1 1 15.1383 4.13353 3.85714 0.150293
2793 1 1 16.0778 4.63276 3.76636 0.787179
1336 1 1 15.9667 3.72158 4.90091 2.92461
7595 1 1 18.1901 2.84783 2.37314 0.827307
7202 1 1 17.832 3.96048 3.54303 1.69142
115 1 1 17.7772 3.27162 4.38949 0.602879
774 1 1 0.623876 5.84831 5.10544 3.26012
7791 1 1 1.24284 5.40428 2.44784 1.63176
2033 1 1 2.28448 6.04886 4.36287 1.7064
2044 1 1 3.17352 4.73596 2.90529 1.67458
799 1 1 2.92482 5.42663 4.79806 2.09736
489 1 1 3.48034 3.88778 2.16101 0.162617
188 1 1 6.35408 6.37474 1.88877 0.678101
580 1 1 7.29337 4.59186 4.4046 0.304716
7251 1 1 7.44345 5.00994 5.39396 1.80568
1850 1 1 8.18638 5.37192 3.66509 1.50814
6566 1 1 9.46759 3.93473 4.43973 0.0915629
5747 1 1 8.39013 4.17101 3.13912 1.29063
6996 1 1 9.31021 3.42794 3.51029 0.192751
1025 1 1 10.6183 5.3103 4.41931 1.21994
1585 1 1 11.2452 5.16765 2.80885 0.257151
6470 1 1 14.181 4.87927 3.0915 3.08469
7782 1 1 14.0299 6.80603 4.2871 1.79881
2139 1 1 15.2791 5.01774 3.12657 1.47542
1422 1 1 14.6222 5.79106 3.53982 0.0358391
1213 1 1 15.6745 5.01201 5.1189 1.11448
7579 1 1 14.7345 6.92971 3.33038 1.04077
6719 1 1 16.4599 5.18472 2.85896 0.263023
7659 1 1 17.7298 6.79872 5.04078 2.22451
383 1 1 0.540497 4.68383 1.66464 0.922322
72 1 1 2.3168 6.70848 2.7617 3.2555
913 1 1 0.269321 6.317 3.84641 0.331507
608 1 1 3.21453 5.63615 2.34322 0.943961
6159 1 1 1.06143 7.67021 4.87271 1.07138
509 1 1 4.21131 5.34738 2.30055 1.72469
2917 1 1 3.53024 6.74434 3.14986 1.9931
7601 1 1 2.81912 6.07492 3.39389 1.79741
3 1 1 3.54197 7.12874 4.37771 2.06686
1002 1 1 4.23185 6.36089 3.88847 5.65499
217 1 1 5.915 6.97073 5.21698 1.24714
6477 1 1 6.35352 7.2137 2.68589 2.97201
985 1 1 5.0606 7.04612 4.24346 0.870931
7387 1 1 9.03766 5.58531 4.5424 1.21373
7683 1 1 8.46352 6.05909 2.84467 0.910959
7685 1 1 7.61636 6.44567 3.80578 1.24179
2855 1 1 9.94691 7.89563 3.20365 0.275042
6619 1 1 12.3516 8.86139 1.24199 2.85496
7850 1 1 10.8911 6.02945 5.2273 8.17318
7725 1 1 12.8472 6.23866 4.7089 1.66853
1203 1 1 15.6105 7.06199 2.97404 2.57582
102 1 1 18.178 7.09858 3.62686 0.325667
538 1 1 0.944356 6.25248 3.13578 2.23167
1757 1 1 18.1774 7.76215 2.65451 2.43806
802 1 1 1.7851 8.79834 3.70917 1.13908
926 1 1 0.749336 7.42712 3.23879 1.92847
1275 1 1 2.2633 8.39673 4.47956 2.78578
7326 1 1 4.15198 8.01937 4.2608 6.9607
7242 1 1 3.11761 7.69685 3.65289 0.418539
153 1 1 5.21909 8.24227 4.25701 2.39153
1547 1 1 6.16994 8.72565 3.62711 3.47057
6971 1 1 5.50256 8.2381 2.93562 0.912229
1475 1 1 9.7298 7.32044 2.33255 0.295189
408 1 1 6.61908 7.28455 3.75821 2.51618
7335 1 1 9.36338 8.79755 2.93278 2.72641
1809 1 1 10.729 7.65202 3.76301 1.01638
557 1 1 13.6123 7.19122 5.39848 1.12586
2798 1 1 16.5727 7.50611 4.19786 0.95897
2151 1 1 17.1139 7.57947 2.4396 1.21942
1079 1 1 0.785318 8.96283 3.38849 0.497756
1728 1 1 2.16845 10.9027 3.49736 0.528601
634 1 1 2.73984 11.6381 4.63179 0.750379
1005 1 1 1.95967 9.74657 4.45669 0.663557
715 1 1 5.96901 9.83562 3.54051 1.13302
440 1 1 4.98626 9.26827 3.33587 3.47891
345 1 1 7.31553 9.46864 3.89878 0.899158
154 1 1 7.28517 8.75545 3.0671 1.10618
1194 1 1 9.60288 7.83692 5.23901 1.18789
1295 1 1 8.7831 9.55434 1.94435 0.148664
825 1 1 11.2544 10.3419 4.96712 2.2781
1833 1 1 10.9842 10.5758 4.00163 2.05703
572 1 1 12.3622 10.8066 4.70679 0.726443
7739 1 1 15.6582 11.7857 3.5873 0.52438
1802 1 1 13.9455 10.6348 2.07359 5.08273
7085 1 1 15.6597 9.0635 1.75675 2.41133
790 1 1 16.3842 9.47227 3.64702 1.20484
667 1 1 17.642 8.79966 3.68091 2.79669
1709 1 1 17.2942 10.1697 3.82596 1.30786
3565 1 1 18.1978 11.3102 4.0649 0.357084
1287 1 1 1.5697 11.5084 4.6183 0.191368
1349 1 1 4.10689 9.72528 2.67986 0.594338
6563 1 1 4.20535 13.0548 2.70864 2.92031
7130 1 1 2.59971 12.0901 6.33628 0.545013
6196 1 1 4.48009 9.09334 4.29883 1.37302
146 1 1 6.06776 10.8664 4.17226 1.93578
840 1 1 4.97809 11.1583 4.05952 0.842927
5697 1 1 5.4155 10.9801 1.63913 1.37656
529 1 1 6.90307 8.23414 2.2503 1.83356
95 1 1 7.0683 11.1236 2.34248 1.00924
7459 1 1 4.89514 10.7138 2.45639 1.0359
823 1 1 8.46276 9.13549 4.3333 2.55102
487 1 1 9.00698 11.3912 2.57784 1.37155
7139 1 1 8.4566 10.0451 2.81179 1.40576
1940 1 1 9.37884 11.2229 5.22176 0.0843782
1487 1 1 8.51819 10.4394 3.83324 1.03716
416 1 1 12.1665 9.43968 3.96993 0.0479192
1199 1 1 12.7735 9.92714 2.66858 1.39241
7156 1 1 13.6428 11.7524 4.97309 1.37322
7004 1 1 16.2744 10.4412 3.92437 0.802187
1426 1 1 16.229 9.88144 5.24278 3.12936
1000 1 1 0.871915 10.1304 3.32972 0.429491
2621 1 1 18.3744 10.2379 4.54203 4.51033
6762 1 1 1.32483 12.9073 1.92957 2.46505
2329 1 1 3.54812 12.4791 6.08086 3.08408
7717 1 1 3.53628 12.2839 4.98272 2.59834
7755 1 1 4.58014 13.7193 3.46686 0.850394
6842 1 1 4.61559 12.3057 3.49099 0.258287
699 1 1 6.41263 12.4475 3.57707 0.806559
2732 1 1 7.41498 12.8152 3.83823 2.31916
7704 1 1 8.13236 11.8059 3.92109 1.33472
1920 1 1 11.8361 11.0397 5.65017 1.40371
640 1 1 11.8352 11.2296 2.95708 3.59414
7531 1 1 12.6716 12.2397 5.20715 1.19134
221 1 1 11.748 10.3362 2.58167 1.10708
1100 1 1 14.0732 13.2715 4.39814 0.843916
7798 1 1 13.6365 11.0035 5.83045 0.654234
7040 1 1 14.6929 13.5619 2.11664 1.58438
1493 1 1 16.402 11.4252 2.98674 0.498134
1184 1 1 16.3425 12.4869 4.19767 0.600405
888 1 1 16.4862 13.6017 4.57898 2.89824
1024 1 1 0.773566 11.0023 3.77149 2.19726
986 1 1 18.4462 12.0861 4.93861 0.0447145
2277 1 1 18.1506 13.2447 4.33242 0.741828
204 1 1 18.4575 16.0945 3.60588 2.26195
1233 1 1 18.4975 12.6104 3.32685 4.26067
203 1 1 18.6477 14.2609 4.01225 0.104207
7621 1 1 4.64291 14.887 3.08991 3.52004
178 1 1 3.7005 14.4459 3.61154 1.63448
7811 1 1 4.73292 12.9566 1.66152 0.925545
584 1 1 5.52947 12.7816 3.27509 1.06317
245 1 1 6.70482 14.8247 4.03583 0.283607
1505 1 1 6.04816 12.964 5.16688 2.41354
1853 1 1 6.48457 13.4233 4.47064 1.01965
7489 1 1 8.40516 13.6252 3.44703 0.352524
906 1 1 10.0611 13.4783 2.94581 0.590335
2032 1 1 11.2013 13.7781 3.38011 3.69737
2126 1 1 12.9334 13.1912 2.51666 1.61199