ITEM: TIMESTEP
600
ITEM: NUMBER OF ATOMS
8000
ITEM: BOX BOUNDS pp pp pp
0.0000000000000000e+00 1.8820720577620570e+01
0.0000000000000000e+00 1.8820720577620570e+01
0.0000000000000000e+00 3.7641441155241139e+01
ITEM: ATOMS id mass type x y z v_temp
1634 1 1 18.1451 1.24722 1.88226 1.02441
1142 1 1 17.0716 2.37795 36.7119 0.784616
7604 1 1 1.46379 17.4916 0.323691 2.10602
7210 1 1 4.22814 18.0771 1.49335 8.85243
318 1 1 1.77189 18.2967 2.2243 1.35959
287 1 1 6.18197 0.543613 0.267219 1.6937
7226 1 1 4.91861 1.51299 1.43194 0.739988
6076 1 1 6.76532 2.47376 0.398191 4.0777
7503 1 1 6.47599 1.93041 1.20349 1.57111
6017 1 1 7.48178 1.57154 0.344638 4.71552
7535 1 1 8.99778 0.346298 0.363075 1.5603
2020 1 1 10.4771 0.629336 37.3567 0.812651
696 1 1 12.3863 0.631859 0.896094 2.82191
383 1 1 14.9324 0.388139 2.70559 2.41651
640 1 1 13.2526 1.66063 2.86321 0.252476
7930 1 1 16.2395 18.5286 1.3309 2.05096
554 1 1 17.0579 18.2244 35.7395 0.323123
7471 1 1 17.0934 2.68303 35.379 4.4272
1198 1 1 0.23945 0.826816 1.71234 0.368719
576 1 1 17.2822 2.20561 0.944889 1.74497
115 1 1 17.3998 3.30657 37.0625 1.32428
816 1 1 2.70485 2.60467 1.54615 1.95555
6995 1 1 3.53804 3.17821 1.98376 2.40236
2126 1 1 6.69201 1.65942 2.24635 2.47184
172 1 1 5.32192 1.4081 37.2831 0.58237
5756 1 1 8.13474 3.12615 36.8606 3.54903
6659 1 1 8.68471 3.79985 2.16884 0.632768
1206 1 1 9.00716 1.46038 2.46732 0.324499
7660 1 1 5.876 3.73941 37.6171 0.56857
2305 1 1 10.123 2.39633 37.2209 1.32898
7725 1 1 11.7303 3.61638 1.88099 0.694848
6691 1 1 12.2507 1.44728 35.8863 1.54188
1308 1 1 13.0983 1.61558 1.68814 0.81635
1269 1 1 15.6824 0.640478 1.37006 1.51771
6873 1 1 11.9607 3.01455 37.2652 4.0447
7830 1 1 13.6697 0.764465 2.0893 0.305852
7423 1 1 14.4554 1.1497 2.99252 1.53786
1344 1 1 16.3043 2.66176 0.881561 0.840788
7998 1 1 16.3936 4.64585 2.45705 3.01054
18 1 1 0.707912 2.35973 1.33449 2.7181
47 1 1 18.7741 3.69066 1.37489 0.632583
366 1 1 0.444463 5.00908 0.168596 1.03323
1481 1 1 2.29739 0.296431 1.04944 2.88155
7456 1 1 3.18323 5.38349 2.71152 4.80708
7697 1 1 4.19852 2.87454 0.21124 4.53257
402 1 1 4.12282 4.8504 37.136 3.97954
879 1 1 4.99073 2.73198 1.24596 0.741349
7667 1 1 6.69435 4.02904 36.7986 0.543435
464 1 1 7.043 3.33385 0.315597 1.64346
543 1 1 10.3821 5.94767 0.0618298 0.833617
2348 1 1 9.30577 5.40287 0.793988 2.09263
7010 1 1 13.825 2.77307 1.45636 0.881569
73 1 1 9.90275 4.3563 0.371081 0.834728
151 1 1 16.2519 4.86838 37.1753 0.941176
1315 1 1 15.3858 1.80616 37.2696 3.00507
6648 1 1 1.65178 3.22548 1.18308 0.513079
762 1 1 16.786 7.33535 37.5983 1.49178
791 1 1 18.5664 4.73256 36.937 1.97457
7980 1 1 17.6961 5.01238 3.14039 2.81973
802 1 1 1.11379 5.33234 1.3379 0.395087
7879 1 1 4.54954 5.55472 0.0874273 0.641882
7631 1 1 5.1199 3.90312 0.855157 0.78515
548 1 1 4.44105 6.74914 1.57019 2.77943
217 1 1 6.92235 4.37801 0.233982 1.95081
1076 1 1 8.53519 5.41295 1.79089 3.25114
945 1 1 6.40669 5.98815 0.0197203 0.9029
697 1 1 9.95393 6.65642 36.3056 2.80081
1330 1 1 11.2351 7.71403 37.0007 0.713008
1380 1 1 15.3914 4.04972 36.8419 1.19958
7911 1 1 14.7622 2.92905 37.4786 4.79381
2160 1 1 16.2144 6.36983 36.8469 0.923228
7937 1 1 18.1339 4.44386 0.915823 2.04336
1713 1 1 1.97648 3.50026 37.1336 0.793353
924 1 1 0.937473 9.76843 0.669178 2.00728
34 1 1 17.4529 4.41745 36.8027 1.41567
6762 1 1 1.34351 8.1497 1.50113 0.627498
1158 1 1 2.82763 2.9793 37.1371 0.480552
997 1 1 5.84328 6.65709 0.901549 1.93283
645 1 1 4.72329 6.5634 37.4073 1.18741
930 1 1 4.76551 7.26419 0.476354 0.719571
568 1 1 7.38606 7.25913 1.67236 1.58345
7748 1 1 9.08781 7.88682 1.17986 0.0429688
7921 1 1 6.44314 5.25318 2.16027 1.195
5854 1 1 8.30457 5.6867 37.0001 2.73412
6669 1 1 12.9592 7.88987 1.34915 1.98631
6497 1 1 11.8067 7.68822 0.588861 0.247346
7420 1 1 11.1618 6.87965 0.551932 0.321973
214 1 1 11.8777 6.24319 1.46999 3.3218
721 1 1 11.237 9.18794 37.5498 1.79356
181 1 1 12.551 6.23105 0.369601 1.85242
193 1 1 11.4737 4.45729 1.04977 4.26178
7972 1 1 15.0695 6.62777 0.855637 0.582519
1359 1 1 14.3196 4.3146 37.5537 1.50884
7641 1 1 17.364 6.44973 1.39327 0.295453
1318 1 1 0.814383 7.35479 2.22989 3.25936
6533 1 1 0.389593 7.54239 3.51555 0.786968
7351 1 1 1.50036 8.4902 0.231487 0.145614
7657 1 1 1.1338 11.0136 35.8262 0.975807
925 1 1 3.20548 7.66098 35.9184 0.822205
6235 1 1 6.57504 7.33352 1.16284 6.38323
331 1 1 5.335 8.8 36.3675 1.08115
7958 1 1 6.72439 7.33199 0.162427 1.34351
178 1 1 5.3524 9.86173 37.5896 0.985453
7335 1 1 9.40688 8.9869 2.04527 0.335207
5813 1 1 5.74447 8.28889 0.535518 7.83899
6538 1 1 10.1105 7.36257 0.838194 3.21595
461 1 1 10.8722 11.4061 35.9916 1.86165
7348 1 1 12.7899 6.07264 1.51648 0.22609
6705 1 1 17.5194 7.90567 37.2139 1.41973
498 1 1 12.5605 7.37899 3.3153 0.720528
7851 1 1 15.6212 7.87998 3.10856 2.06428
7800 1 1 17.9164 9.4227 2.20052 0.371635
230 1 1 18.6205 6.9115 2.05761 1.04178
7734 1 1 0.0371898 11.2528 36.0302 0.716187
1637 1 1 18.6894 9.1021 2.90551 0.432013
6987 1 1 5.83836 9.64515 2.06007 2.09724
7791 1 1 4.79766 7.87087 2.97182 1.22623
5753 1 1 6.30253 9.61059 0.299811 0.0765149
6566 1 1 8.29634 9.37336 0.756644 1.2291
1790 1 1 6.28045 10.851 2.08878 0.415766
3250 1 1 8.08957 10.9594 0.518089 1.86275
1038 1 1 8.82111 8.01471 36.3966 0.450726
570 1 1 11.2641 9.16757 1.26558 0.878863
7943 1 1 12.0848 8.25309 1.87746 4.4408
2177 1 1 10.7788 8.48883 0.521826 1.77621
86 1 1 14.2352 9.31631 0.707554 1.07338
7979 1 1 13.481 9.0612 4.09117 4.30299
79 1 1 15.6176 9.44428 1.05598 3.03445
6241 1 1 16.8286 7.17857 1.88632 1.86773
648 1 1 12.9443 8.77525 2.12174 1.5267
736 1 1 17.0316 8.68528 1.33256 2.48165
1036 1 1 16.9225 10.0258 36.9328 1.01151
884 1 1 17.5896 9.24559 0.134626 0.608177
340 1 1 3.35234 13.0372 1.50253 0.474981
1350 1 1 1.08091 12.0511 37.2066 1.22768
6578 1 1 4.45647 8.62022 0.698169 0.487848
1172 1 1 4.3826 11.6833 0.991815 2.68794
639 1 1 4.06236 11.59 37.139 1.93463
7891 1 1 8.12362 15.2916 0.748293 0.25507
7002 1 1 10.464 9.00545 1.77399 2.56561
1542 1 1 8.98257 10.3919 1.23828 2.27346
6536 1 1 8.35215 11.2753 1.85557 0.936455
7156 1 1 12.6356 10.561 0.85128 0.256409
7452 1 1 12.6678 13.205 1.00575 5.33812
7635 1 1 14.0635 11.3687 0.188294 1.00745
379 1 1 16.2747 11.3507 0.180639 1.96836
1074 1 1 16.7945 11.1177 36.7202 3.07495
7836 1 1 0.330434 13.8427 36.9302 0.648902
7863 1 1 2.4627 14.0816 2.38983 0.241007
7446 1 1 17.2937 11.7083 37.4532 0.603388
6646 1 1 2.97672 12.0524 1.84312 2.22317
8000 1 1 5.40095 12.3355 1.12576 1.50403
7056 1 1 4.92245 13.5533 0.777179 1.5837
7621 1 1 4.93102 11.9472 1.97675 1.60687
6252 1 1 7.27345 12.4162 0.570882 0.571468
532 1 1 7.21929 10.0846 36.6995 0.460219
7065 1 1 6.9471 10.9555 37.4953 1.5344
7457 1 1 9.48581 12.7172 1.28763 1.83563
1178 1 1 10.4237 13.4228 1.4794 2.96553
7704 1 1 8.99104 12.2571 2.38497 0.238906
6699 1 1 13.7456 12.1892 1.42877 1.17315
1976 1 1 12.6517 11.6229 37.1814 0.536707
57 1 1 15.569 10.0965 36.9278 1.70453
234 1 1 16.9049 14.0883 1.22061 1.24133
7189 1 1 16.3656 12.2093 36.1545 1.08048
7847 1 1 2.37032 13.9778 1.21626 1.94048
6243 1 1 5.6977 14.3344 0.330073 3.5118
7051 1 1 3.60739 14.0215 2.99098 2.66169
7610 1 1 5.09251 15.3209 1.20535 0.428751
1081 1 1 9.58356 13.7822 0.748595 2.00827
1144 1 1 7.32488 14.5003 1.35606 3.53093
6898 1 1 5.48696 14.5879 36.7683 0.0344577
67 1 1 7.79658 13.9878 3.22044 5.12471
38 1 1 10.5433 12.9723 0.570481 0.0432647
377 1 1 13.0772 14.0644 1.6143 0.44346
501 1 1 14.7662 12.5003 0.468105 2.3243
7826 1 1 17.3176 13.5193 37.4866 2.01608
7483 1 1 16.3726 11.8904 1.39039 0.99241
7052 1 1 17.6191 15.7106 0.837064 1.91696
579 1 1 18.1062 13.7933 1.2747 0.273672
634 1 1 18.0155 12.6028 0.41376 0.311549
962 1 1 2.25687 12.9619 3.38517 0.976255
704 1 1 3.46191 15.5422 36.3754 0.426251
1529 1 1 3.25287 13.9182 0.496189 0.84467
6321 1 1 4.11637 17.6317 37.4454 4.73795
203 1 1 4.39318 13.3435 1.7667 1.81682
154 1 1 6.51872 12.8478 36.5332 0.940491
734 1 1 6.92449 13.7962 37.2339 0.388656
6379 1 1 6.82305 14.6962 0.0913057 1.33933
1908 1 1 10.321 14.7989 1.41938 0.777756
7569 1 1 8.73687 16.2143 0.626312 3.58987
227 1 1 9.29045 14.4543 2.07853 0.155701
1134 1 1 9.51717 16.4169 37.1731 2.30383
22 1 1 12.4126 16.9474 0.661508 1.32338
1143 1 1 14.2353 13.128 2.56921 0.806067
1474 1 1 16.5186 14.1192 36.9585 0.591748
7548 1 1 15.8981 14.8249 2.27354 1.26751
668 1 1 17.4297 15.4619 36.4432 1.94015
559 1 1 2.56337 15.7379 36.8986 0.612668
2134 1 1 1.74145 18.4635 37.1594 3.00465
311 1 1 2.68335 16.4086 0.201819 1.12449
7934 1 1 3.57486 17.3259 2.00064 2.30622
439 1 1 3.35469 16.1328 2.0661 3.78185
7767 1 1 5.91111 16.2805 35.2639 0.177891
399 1 1 4.53538 16.4333 0.925026 5.49559
7214 1 1 7.19026 14.537 35.8546 1.05426
7180 1 1 8.35058 13.8184 35.1532 3.36343
6835 1 1 5.54345 18.5315 1.30064 1.93223
7206 1 1 7.84918 17.0879 2.32787 0.731395
7616 1 1 9.77235 0.497993 36.1435 1.25027
841 1 1 11.7717 17.0395 1.89674 0.323116
7736 1 1 9.45951 15.4767 37.5695 3.06301
7779 1 1 11.625 17.6237 0.038064 0.316456
2343 1 1 12.7164 16.6582 36.4207 0.557877
1916 1 1 15.3298 15.7399 37.2095 0.66215
6913 1 1 14.9418 14.2581 1.86536 0.804033
2038 1 1 17.0455 16.8005 1.52136 2.01802
7855 1 1 0.247656 14.3458 1.6865 0.228698
1042 1 1 17.3401 16.7096 0.41448 0.677986
7999 1 1 17.8612 16.0377 37.2708 1.47011
1569 1 1 1.06389 16.2377 0.7565 1.67128
7265 1 1 2.33021 1.31585 0.975859 1.36077
332 1 1 2.30384 17.8468 0.905764 0.168361
6777 1 1 0.705495 18.5049 0.596681 0.879586
6866 1 1 6.46155 18.3854 2.0732 0.879659
7267 1 1 5.0989 18.7144 0.184851 0.496939
1729 1 1 5.10126 16.9774 2.68276 5.69597
43 1 1 5.61506 16.4195 0.937324 3.05101
7581 1 1 7.03798 17.3471 36.9072 0.640672
7678 1 1 5.97868 0.52894 2.81294 2.72755
1895 1 1 4.97505 17.3214 1.55918 0.960932
708 1 1 9.346 0.438299 2.09126 1.41587
7961 1 1 9.76511 18.3322 2.47081 1.41319
7705 1 1 13.0369 16.7237 2.26601 0.415565
356 1 1 13.5016 17.6063 0.795194 1.50096
6636 1 1 15.1529 17.4202 0.317316 0.461281
343 1 1 13.7639 17.2741 1.75557 1.12822
6723 1 1 14.5308 15.904 1.96914 0.906711
7088 1 1 18.4642 18.428 37.2084 5.94839
3499 1 1 16.6048 0.46549 0.00371497 1.04261
7261 1 1 18.5057 17.7866 0.610123 0.237069
489 1 1 2.5448 0.647314 4.92844 1.51978
1168 1 1 5.14328 0.638733 3.38559 0.981367
445 1 1 4.40445 16.278 2.05079 1.91947
1930 1 1 3.3507 17.4127 3.29189 0.697224
1257 1 1 5.48346 18.5061 4.03798 0.729982
497 1 1 6.1612 1.41479 3.69455 1.5625
89 1 1 8.4647 1.1742 3.58902 3.75561
1208 1 1 7.10015 1.27269 3.2111 1.30696
7785 1 1 7.26403 0.250235 2.33612 3.66961
505 1 1 11.182 1.25455 1.86403 0.979481
7745 1 1 11.1869 1.396 2.95889 0.0844268
1339 1 1 9.70363 1.37764 1.55536 0.23291
677 1 1 12.3304 1.1607 2.30669 1.0904
700 1 1 12.3951 0.996161 3.31952 0.110624
31 1 1 16.9681 3.05851 1.83454 0.0120371
7478 1 1 15.7712 0.122921 2.20777 0.541225
787 1 1 16.5696 2.08446 2.26955 1.66063
351 1 1 17.9069 18.8412 2.4033 3.47217
7647 1 1 17.8799 17.9214 1.68987 2.42593
1718 1 1 1.64506 0.738794 3.58707 2.19097
1766 1 1 1.60724 17.9365 3.24336 1.02135
547 1 1 3.71018 2.09839 1.29681 0.208076
936 1 1 4.41058 2.19216 2.05284 1.18749
2026 1 1 5.0861 1.61591 3.94736 2.45298
569 1 1 4.33795 1.1312 37.0996 1.35474
566 1 1 7.85845 1.75568 2.26685 0.114459
633 1 1 6.43235 0.395877 1.5141 1.29784
886 1 1 8.14746 2.30222 3.58048 1.6409
593 1 1 10.8038 3.68628 1.16806 2.09578
173 1 1 9.00016 18.7262 3.16386 3.83689
7332 1 1 8.83974 4.31471 1.11128 5.81386
21 1 1 10.2529 1.87718 0.905783 2.17549
7155 1 1 13.4706 3.53105 3.20118 0.722087
7669 1 1 14.1382 1.80057 1.98623 1.4007
1020 1 1 14.0735 2.78508 3.41477 0.940946
859 1 1 16.8761 18.5699 2.81801 0.798246
7549 1 1 17.0343 2.22519 5.07797 0.498271
1348 1 1 0.114206 2.41903 3.60978 0.735415
7440 1 1 18.7922 1.41281 3.39892 1.04532
7903 1 1 0.791368 3.13708 2.07282 1.28676
7795 1 1 0.562984 8.41209 2.90998 2.08098
7284 1 1 5.41122 3.61228 3.73 2.27171
6767 1 1 5.96832 5.67557 3.47581 0.60116
835 1 1 6.821 2.9754 36.6479 0.423786
2824 1 1 4.77678 5.0952 1.17949 1.216
7718 1 1 6.0827 3.36356 0.997502 0.732938
7653 1 1 7.71135 4.37751 0.954733 0.690701
7215 1 1 6.71828 4.18152 1.14012 4.18526
623 1 1 7.74174 5.02439 2.28066 0.399932
1416 1 1 7.66984 0.79458 1.55655 1.60553
7666 1 1 9.84026 3.79997 1.82065 0.902123
492 1 1 11.7492 5.10732 1.86968 1.49437
7387 1 1 9.24778 4.45852 36.6329 0.462448
6541 1 1 13.9812 4.41137 2.09345 2.24901
7246 1 1 14.9292 2.56862 2.8346 1.60243
7938 1 1 16.4464 2.64715 3.88832 0.521199
651 1 1 17.665 3.14011 0.550619 0.224828
7844 1 1 15.2481 5.05642 37.2959 2.50726
6975 1 1 0.897627 6.44068 1.72743 0.788794
5621 1 1 2.30386 6.30683 2.37519 1.06455
6396 1 1 2.76771 6.42863 1.48095 1.30484
7659 1 1 4.0438 6.20371 0.697083 0.549186
1237 1 1 4.79825 4.4119 3.10888 0.240175
15 1 1 3.27401 4.44696 3.82091 2.06355
7251 1 1 4.49074 4.36659 2.09104 1.56677
7924 1 1 4.51893 5.53763 3.90734 2.12818
661 1 1 6.42898 4.35675 3.95112 2.029
7532 1 1 5.33126 5.22922 2.15363 2.21415
585 1 1 7.61286 4.37133 3.05167 6.27972
934 1 1 9.59068 4.85028 1.91707 1.07741
6703 1 1 9.52061 5.81999 1.70118 6.33164
1369 1 1 9.38927 6.85184 1.75262 2.15633
91 1 1 13.1039 5.12516 2.12432 3.98447
528 1 1 9.3316 3.66718 3.05327 2.21786
985 1 1 10.8456 6.32026 1.78762 0.484261
387 1 1 14.9001 3.50487 2.56673 1.85633
1473 1 1 16.8961 4.37068 1.01719 1.19625
271 1 1 13.8441 4.42961 1.09321 0.237499
511 1 1 15.5174 2.16373 1.4401 3.48674
966 1 1 17.456 5.30751 0.814234 4.80358
914 1 1 15.9579 3.29331 2.30645 0.29431
7432 1 1 18.2116 5.85408 2.44684 0.528035
7966 1 1 3.13512 8.61867 2.13768 0.138296
206 1 1 15.7097 4.57655 1.1965 1.70935
7967 1 1 2.43915 6.67346 37.3416 1.67482
442 1 1 4.01367 9.21489 2.00799 0.566853
7944 1 1 3.44242 8.5232 0.220095 1.41233
7803 1 1 6.66781 7.08115 2.39687 0.545084
1177 1 1 7.78839 6.06026 3.99584 0.459943
6136 1 1 8.23325 6.45192 1.85206 0.462416
7663 1 1 8.96188 6.5983 0.759747 2.89845
7138 1 1 10.9737 9.22156 2.88642 0.617905
7904 1 1 7.97278 5.94493 2.73565 1.1355
1051 1 1 8.68462 5.12828 2.7128 2.0961
7422 1 1 13.1756 6.64185 3.56346 1.15784
469 1 1 12.3997 5.57994 3.27761 3.91586
7611 1 1 13.6157 5.19914 4.09235 2.9843
188 1 1 11.5586 7.22287 1.63445 0.390862
1329 1 1 12.5442 4.17288 1.49695 3.33321
5812 1 1 14.2942 6.18476 3.84345 0.305566
35 1 1 15.3032 6.85237 36.0752 0.39935
1377 1 1 15.395 4.4742 3.68971 0.477452
2197 1 1 15.5961 5.38817 2.70281 1.33045
7544 1 1 16.2179 6.52866 4.70861 1.09941
223 1 1 14.6752 5.24823 0.398077 0.654819
72 1 1 0.179254 5.67248 1.06249 1.64007
75 1 1 18.1042 4.37994 2.25501 2.73706
2320 1 1 15.5956 6.95763 3.8872 7.06871
5817 1 1 4.08673 8.05659 2.1071 1.13269
7322 1 1 8.17746 7.55331 2.17609 4.3988
626 1 1 6.56796 8.38045 3.38338 0.828176
7738 1 1 5.9306 7.57111 2.76491 0.712116
1648 1 1 8.9678 7.51826 2.70483 1.00397
571 1 1 9.87923 7.7445 3.48498 1.15443
5690 1 1 10.6879 8.0724 1.96079 1.95144
2244 1 1 11.3003 10.0989 0.506467 1.11772
122 1 1 9.70767 5.34693 3.43848 1.96795
1441 1 1 14.4012 7.39204 4.89182 2.50241
276 1 1 14.0528 5.5882 1.24478 2.65125
108 1 1 15.3131 8.40973 0.525464 1.02682
186 1 1 16.2482 10.3733 3.1982 8.01809
1314 1 1 0.0106815 10.0035 0.0838669 0.501618
1005 1 1 3.8746 7.59005 0.869664 5.02193
7326 1 1 5.14498 8.95497 1.51293 1.26001
1681 1 1 5.06603 11.0616 2.50047 1.10268
6874 1 1 7.16248 8.76556 36.7917 0.441154
1301 1 1 4.9937 8.94363 2.69079 0.40485
10 1 1 6.36052 10.6978 0.98815 0.175669
7459 1 1 8.28672 8.95337 2.48744 0.796394
765 1 1 7.99386 11.2554 3.28516 0.807246
1475 1 1 8.99447 9.66016 2.62642 5.85728
672 1 1 11.1817 6.82589 3.42733 2.19029
6896 1 1 9.83311 10.9912 1.37161 2.04822
7538 1 1 9.88812 10.3371 2.47472 1.01066
1193 1 1 14.5574 5.81556 2.99034 1.26001
7185 1 1 14.2565 6.66024 2.0497 0.640139
1906 1 1 13.4636 8.54264 3.14553 0.567463
1426 1 1 12.2389 8.54635 4.93756 0.133692
1478 1 1 14.6337 9.02304 5.18753 2.24138
6561 1 1 18.334 10.5226 2.42503 0.691006
84 1 1 16.8584 9.86891 2.32244 1.73939
1093 1 1 2.54547 10.8973 0.85107 0.999895
300 1 1 2.05784 12.259 1.44883 1.83804
877 1 1 17.4896 10.7685 0.0991711 0.880086
970 1 1 6.18076 10.6635 3.52972 0.944897
7482 1 1 3.99042 10.8858 1.84555 1.01473
7805 1 1 4.0469 11.8524 2.48926 0.0168499
1211 1 1 6.43229 9.56584 3.26233 1.35454
290 1 1 5.71005 12.0335 2.63201 0.226737
7643 1 1 6.96357 9.10356 1.02356 2.78069
691 1 1 8.27765 6.9245 3.64263 0.321859
955 1 1 7.69722 12.6348 1.66959 0.614749
1224 1 1 9.89273 9.78975 1.20318 2.68621
232 1 1 11.2988 11.8921 0.722366 1.46355
7983 1 1 14.9904 8.66195 1.97808 1.67282
296 1 1 14.6792 10.9652 1.96744 2.03154
610 1 1 12.2338 9.83477 1.65107 1.42461
2017 1 1 15.0913 7.59629 2.17773 3.1767
712 1 1 17.9987 10.5302 1.25182 1.11073
7470 1 1 17.0582 9.85069 1.1736 1.02067
146 1 1 0.14487 10.3634 1.18043 0.925654
2662 1 1 17.1664 12.2448 0.890276 1.60098
1234 1 1 18.4279 11.7024 2.02616 4.79298
7474 1 1 3.33923 12.7049 2.70112 1.45494
967 1 1 2.64281 11.0244 1.80856 0.0262527
7060 1 1 1.06773 10.8949 1.60216 0.399417
369 1 1 2.38748 11.9491 3.59161 0.537694
7249 1 1 2.69509 13.6803 4.47754 2.0387
325 1 1 8.39 13.5418 1.44201 3.6792
773 1 1 4.92824 12.8635 2.53133 0.466344
453 1 1 6.23084 10.8087 5.22364 2.23267
627 1 1 9.23309 12.6642 4.56912 0.881813
7004 1 1 11.144 12.3673 3.51722 1.27139
1103 1 1 12.1887 14.3935 1.98933 0.233357
738 1 1 13.411 10.0643 1.78665 0.0750326
286 1 1 11.3929 12.7677 1.22104 0.790223
574 1 1 13.3292 11.1365 1.62611 1.15115
1107 1 1 11.2271 10.2141 1.6813 0.774951
7512 1 1 15.3728 11.1149 37.1582 0.238568
973 1 1 15.4164 9.97063 2.68937 2.43211
7772 1 1 1.14388 12.4659 2.12455 0.280037
163 1 1 4.39862 12.6989 3.38471 1.1528
1486 1 1 3.45622 14.4149 3.99908 1.21852
7085 1 1 4.9776 13.4094 3.75877 1.42797
584 1 1 6.21515 12.9014 2.13797 2.24681
255 1 1 6.04868 13.4023 0.580928 0.968613
688 1 1 7.7278 12.6055 6.31684 2.48592
1128 1 1 7.9751 14.3654 4.23433 1.00446
7139 1 1 8.24507 14.7636 1.8687 0.225895
1912 1 1 9.34609 13.2487 2.65933 1.22344
1139 1 1 8.66785 15.7481 2.8182 1.8161
7545 1 1 12.36 12.6457 2.87207 1.9235
423 1 1 13.209 12.0858 2.67823 1.16286
6686 1 1 11.4308 13.9732 0.885564 1.90615
7834 1 1 12.0584 14.242 3.14846 2.18746
6824 1 1 14.7698 12.2471 1.37955 4.02008
7040 1 1 12.0865 14.6269 0.859949 1.47663
6599 1 1 16.2782 13.8101 1.98321 2.75112
389 1 1 15.2564 13.7139 2.74081 0.374283
375 1 1 16.9673 13.1164 1.33944 1.69958
7867 1 1 18.0237 12.6894 1.6296 0.59114
1567 1 1 18.6904 11.3725 0.305961 0.530419
2358 1 1 17.889 13.7885 2.70118 3.21173
1445 1 1 1.01287 15.9579 3.06687 0.249118
7555 1 1 18.4488 15.0438 1.20718 0.516551
757 1 1 1.27967 15.1061 1.94166 1.58847
1485 1 1 3.88528 15.1966 1.78462 1.07065
815 1 1 7.16196 16.1939 0.599339 1.774
7926 1 1 5.92354 16.4283 2.35644 4.76749
749 1 1 8.17516 15.7713 37.576 1.43392
6851 1 1 10.208 13.9204 2.69483 0.101713
872 1 1 7.60143 16.0069 1.50379 1.00039
7700 1 1 8.37086 16.5081 4.75551 0.0653214
7489 1 1 11.7166 14.6744 4.17873 0.435683
256 1 1 8.92387 16.1738 3.88605 1.46707
976 1 1 11.193 12.4089 37.4985 4.6245
381 1 1 11.1502 14.2028 2.42496 0.821001
273 1 1 15.5966 16.009 1.98428 0.328591
7787 1 1 -0.00809581 15.0878 35.7781 1.8071
2367 1 1 0.426183 17.1897 1.16166 1.83212
5999 1 1 2.52162 15.6187 1.90525 1.71372
7887 1 1 0.448309 14.3455 3.15126 1.18456
670 1 1 16.8664 18.4531 4.95339 0.0987447
7968 1 1 0.412621 15.9718 1.34593 2.9243
1509 1 1 0.390295 15.3598 2.39771 0.716444
6459 1 1 1.99967 16.8451 1.10578 0.944668
1446 1 1 4.62806 0.559753 1.2741 2.16461
1328 1 1 5.49928 17.7475 0.499688 1.24301
7613 1 1 6.79008 17.173 2.68332 2.29367
3576 1 1 8.55265 16.7828 37.1194 2.57029
292 1 1 7.17551 12.9561 2.63128 3.7247
1582 1 1 9.18836 17.9184 1.73744 0.571814
814 1 1 10.36 17.6744 35.7858 1.88235
7620 1 1 8.26928 18.0337 2.70611 0.735334
7230 1 1 10.4557 17.5262 2.14712 1.89061
1505 1 1 9.78194 15.8074 4.34331 0.379292
7149 1 1 12.093 16.1305 2.39438 1.4207
781 1 1 11.4879 17.7994 3.41704 2.59643
2661 1 1 11.7896 15.4228 1.69713 1.67028
2150 1 1 12.9446 15.4855 0.0451292 0.950495
629 1 1 16.9285 15.6593 2.08811 0.91652
1928 1 1 0.0546444 17.9662 2.18954 0.31699
2033 1 1 16.0681 16.6497 1.01575 5.25514
7188 1 1 1.03609 17.4531 5.02457 0.242684
686 1 1 1.15327 17.3605 2.13053 2.07946
7585 1 1 0.763382 18.5112 3.674 1.01294
1140 1 1 4.4621 1.31251 2.53732 1.28386
1453 1 1 4.8208 17.6993 3.58974 0.620883
487 1 1 5.08725 14.9968 2.61262 2.00644
7754 1 1 2.40518 15.6106 4.40401 1.13021
605 1 1 7.47915 18.6402 1.07455 0.55551
7996 1 1 8.45628 18.7397 1.76195 2.28568
829 1 1 10.2929 18.3332 0.781885 4.15771
450 1 1 9.22746 17.0213 3.14703 0.516108
6027 1 1 11.9345 0.260244 4.8745 0.463569
7987 1 1 10.8693 18.6805 2.42539 2.11666
6673 1 1 11.5777 0.377325 1.83576 5.17715
1785 1 1 12.1595 17.1888 2.88016 1.04291
2106 1 1 14.4925 0.559655 1.38588 1.37895
1110 1 1 12.9202 16.0275 1.36141 0.977985
1200 1 1 12.9898 17.7905 2.43882 1.929
129 1 1 17.7191 0.291468 1.21629 1.10057
788 1 1 0.235932 17.4159 37.2005 2.70969
194 1 1 1.14097 0.223821 1.73993 0.952959
310 1 1 0.266738 0.740289 4.20971 0.956852
915 1 1 2.74666 1.29517 3.78361 0.608527
7122 1 1 3.34863 18.2852 4.06613 0.0387591
175 1 1 5.33854 1.94219 2.73007 0.873583
1367 1 1 1.59284 0.436464 5.64568 0.126416
7123 1 1 5.45225 2.60709 3.75109 0.258726
1331 1 1 5.43683 0.713619 2.02805 0.7192
7762 1 1 6.3582 1.36931 4.79043 2.10475
293 1 1 7.56342 0.508905 4.60408 1.48006
7964 1 1 9.01809 1.09059 4.62298 0.120554
1658 1 1 8.20237 1.63132 4.79915 3.25208
1749 1 1 9.44154 0.829508 3.47716 0.765538
671 1 1 10.3313 0.145958 3.47397 3.23893
1213 1 1 13.0844 2.70509 3.60275 1.42985
1704 1 1 12.4665 18.0384 4.34063 0.60171
180 1 1 15.1847 18.0343 2.63633 2.35416
906 1 1 12.4301 18.6815 2.90252 1.78334
982 1 1 15.0587 0.724515 3.85062 2.70769
427 1 1 17.4471 2.18824 4.09509 3.87528
7914 1 1 17.935 1.30168 3.99621 0.871692
1205 1 1 15.7608 18.755 3.35793 0.362736
1265 1 1 1.81424 1.25416 4.43836 0.918177
1714 1 1 1.93808 3.9467 2.08183 3.2322
1373 1 1 3.10022 3.09581 5.48757 0.222878
480 1 1 3.72665 0.9845 3.38063 0.59313
656 1 1 6.10354 4.42511 2.63308 0.559205
56 1 1 7.42932 3.29318 3.30679 0.942448
7300 1 1 6.85732 2.33156 3.48496 0.702211
7896 1 1 6.98853 3.37096 4.34835 4.69732
1543 1 1 6.39019 2.95185 2.62609 0.633765
6986 1 1 6.96908 3.08272 1.57403 1.28732
96 1 1 9.41571 1.94971 3.87745 0.522066
1852 1 1 7.66375 2.52952 4.65919 2.67837
385 1 1 8.20839 2.83692 2.03614 0.322082
94 1 1 9.61886 2.67564 2.58073 3.42251
824 1 1 10.0581 1.21012 2.56612 1.52317
7989 1 1 11.1003 2.42518 2.31495 4.65495
553 1 1 11.5374 2.92206 4.19156 3.67641
100 1 1 12.1237 2.05648 3.39618 1.15469
742 1 1 14.561 2.56297 4.76614 1.5434
946 1 1 14.2295 1.83144 4.00251 1.62784
1413 1 1 15.3842 1.78846 3.7123 1.21778
314 1 1 18.3583 2.57452 2.6847 0.675207
874 1 1 18.5866 2.67829 4.76613 0.56342
1279 1 1 1.83759 3.86254 3.18735 1.30019
109 1 1 4.02609 3.5105 1.20036 0.863448
3 1 1 3.87568 4.67079 0.479606 0.223619
1202 1 1 4.90383 3.05665 4.961 2.75088
527 1 1 5.94926 3.75072 4.68337 1.60922
1376 1 1 6.73549 4.27546 5.13745 3.10293
479 1 1 8.37098 6.30002 5.31336 0.467862
1378 1 1 9.51576 4.90664 4.43611 0.453577
2736 1 1 7.50381 3.40806 5.60431 1.01575
3337 1 1 10.5717 4.66223 2.1416 0.170116
7625 1 1 10.552 5.20306 0.946661 2.15327
1664 1 1 12.0897 2.67794 1.32233 1.86256
685 1 1 12.1715 4.71185 37.6297 1.17857
7250 1 1 14.1479 4.12808 3.64891 0.131157
602 1 1 16.2843 4.20314 3.94854 1.02659
7950 1 1 17.3946 0.236512 4.02533 2.05139
1239 1 1 17.2256 3.43011 3.66485 1.45977
155 1 1 0.828606 4.09091 3.71035 1.90426
6152 1 1 2.31913 1.48425 2.13254 1.05811
7366 1 1 18.3356 3.86762 4.25194 1.14541
7841 1 1 18.1211 2.73739 1.42468 0.0644694
1596 1 1 2.12684 7.88706 2.15926 0.9302
1717 1 1 4.33322 5.47224 2.21913 0.254354
158 1 1 3.50773 7.1969 2.05368 1.1273
1883 1 1 5.51502 6.15723 4.35001 1.52703
580 1 1 4.75428 3.40654 2.86957 1.63053
5739 1 1 8.70933 5.9537 3.39038 4.81703
890 1 1 8.89412 2.79207 4.0294 3.61599
2103 1 1 10.2023 3.80285 4.38527 0.781681
140 1 1 11.4903 5.00516 4.13967 0.397389
281 1 1 11.8319 4.05267 4.43002 2.02016
1262 1 1 12.5564 6.55791 5.41693 2.35285
446 1 1 12.694 4.61902 5.47374 0.530079
2075 1 1 15.078 5.19854 4.40928 1.96971
581 1 1 14.7038 4.65707 2.89392 4.76261
7468 1 1 15.7102 3.37741 3.64001 0.762841
2432 1 1 17.4212 4.14223 5.00861 0.527091
1336 1 1 16.2653 4.1419 5.44577 3.66908
148 1 1 17.2884 4.44866 3.91968 0.319533
190 1 1 0.354117 4.26793 2.39661 0.774877
3586 1 1 0.238341 5.48388 4.55593 0.848719
7683 1 1 2.06438 6.44524 4.42182 0.862907
238 1 1 3.06381 7.10969 4.61589 0.0941041
729 1 1 5.23305 5.82236 5.3117 1.74436
1754 1 1 3.20134 5.55471 3.75565 1.65369
440 1 1 7.8256 6.73409 4.66091 0.700782
2397 1 1 7.10061 5.38627 3.2578 0.432276
1405 1 1 7.05671 6.38986 3.12827 1.64909
1194 1 1 9.09861 6.49713 2.63245 0.116215
1466 1 1 8.67113 5.68291 4.42202 0.761521
177 1 1 10.5838 4.64904 3.49261 0.417473
575 1 1 10.6673 5.81242 3.88675 0.278139
488 1 1 12.1321 6.64591 4.1872 0.30351
1759 1 1 10.7364 6.871 4.37781 3.12046
6463 1 1 12.9871 6.9926 2.08718 2.99578
591 1 1 16.2597 5.23612 4.14913 1.01207
7273 1 1 16.2184 7.77802 4.28692 0.626483
3565 1 1 15.9016 6.11965 3.32966 1.31939
444 1 1 0.078986 6.34929 3.05537 1.93644
481 1 1 1.45374 6.97868 3.14854 2.3206
1942 1 1 18.0599 9.97749 3.19963 2.14421
1562 1 1 1.34573 7.58753 3.92059 0.268749
134 1 1 2.86145 6.73322 3.63653 1.82426
875 1 1 0.857423 6.27181 3.77377 3.34135
983 1 1 3.96651 7.56968 4.10795 1.7908
131 1 1 1.84212 8.38319 3.14379 0.0220945
7862 1 1 5.05405 7.11941 4.42213 0.268014
541 1 1 8.60223 7.88194 4.13516 1.72433
1802 1 1 8.79833 9.26248 5.07172 0.263632
557 1 1 9.71897 6.96904 4.73381 0.830741
1069 1 1 11.9118 6.42497 2.66188 0.140459
1781 1 1 9.46977 8.58279 4.31328 2.34198
1422 1 1 13.4066 5.10692 3.14751 0.955865
1833 1 1 14.0462 7.87731 2.18654 3.64054
960 1 1 16.4995 8.17147 2.53531 3.36755
305 1 1 17.2214 8.39207 5.08001 0.598092
1183 1 1 15.2586 5.44608 1.59905 0.831348
1000 1 1 18.2235 8.02732 4.16881 1.6947
1709 1 1 18.667 6.50729 4.8817 2.74744
2357 1 1 2.9704 10.7828 3.22847 3.4133
2110 1 1 1.33586 9.25439 2.77689 0.226556
1399 1 1 0.456632 7.498 4.86048 1.58763
1113 1 1 0.501107 9.82129 3.47912 1.14626
7845 1 1 0.834549 10.929 0.397628 2.8238
114 1 1 1.7826 10.2832 2.69116 0.931723
1917 1 1 3.7309 7.7654 3.04605 4.16732
1280 1 1 2.16895 8.90293 2.18765 0.628218
478 1 1 6.08209 10.067 4.41958 0.56312
1415 1 1 7.29404 9.51125 4.26323 0.125162
378 1 1 9.59266 9.49407 3.39746 2.21334
374 1 1 9.59927 11.1446 4.23635 0.843443
7531 1 1 8.82952 10.2723 4.74001 0.742435
1460 1 1 12.4863 8.39399 3.89638 1.2703
641 1 1 14.2576 10.0969 5.15619 0.797411
6875 1 1 15.7714 11.1726 2.25574 0.628679
1870 1 1 18.4625 9.57427 4.30667 2.012
6719 1 1 18.6155 10.6504 4.13202 0.830061
1276 1 1 2.04331 11.6114 4.98439 0.0301123
336 1 1 18.5515 11.2945 3.1116 0.303943
916 1 1 2.67073 9.33975 4.94923 0.902561
1863 1 1 2.79949 10.4955 4.71694 0.384667
2311 1 1 3.51001 9.90368 3.89842 1.21751
1728 1 1 3.08013 12.6143 4.15859 0.601338
408 1 1 4.31016 13.9647 4.62845 0.888258
1417 1 1 5.00469 9.78284 3.37431 3.30922
365 1 1 6.30363 11.8374 1.39624 0.972274
1465 1 1 7.44616 7.68437 3.62729 3.30654
1001 1 1 7.52774 10.3171 1.84845 5.79408
1046 1 1 7.39888 10.0667 2.88844 2.23579
277 1 1 11.0009 10.1833 3.13834 0.76103
64 1 1 9.17826 12.1336 3.40226 0.384766
241 1 1 10.4101 11.1979 4.89491 0.689959
1017 1 1 12.7205 9.62555 4.62383 0.476338
7573 1 1 10.4844 8.85558 3.71995 1.24726
7739 1 1 11.623 7.66089 4.47597 0.0595621
433 1 1 12.4959 12.3242 1.68739 0.157951
2062 1 1 11.3042 11.6648 4.41462 2.30224
1706 1 1 14.7813 11.0329 5.56974 0.527486
7444 1 1 12.8446 9.57157 3.13996 3.86655
386 1 1 14.4157 11.8224 2.40863 0.623954
1533 1 1 15.4904 9.7405 5.85557 0.486112
683 1 1 17.2229 11.1318 1.55717 0.846183
1965 1 1 15.7731 9.31202 4.34241 0.892382
1349 1 1 16.9892 11.3434 3.02903 0.928275
7350 1 1 1.8546 10.6652 4.28681 1.00837
7927 1 1 3.33852 11.0649 6.28435 1.30594
243 1 1 3.70887 11.18 4.09503 0.108281
863 1 1 0.909216 9.79707 1.86305 3.84306
1958 1 1 5.64679 14.0762 4.074 1.12852
344 1 1 5.45543 11.2511 4.08609 0.0198882
216 1 1 7.30965 10.5633 3.80947 1.98732
1163 1 1 6.55502 11.9113 3.94642 1.56306
699 1 1 6.95947 11.7877 2.53552 1.56177
823 1 1 8.55704 13.1482 4.0034 5.74418
1545 1 1 12.5029 11.0858 5.57686 1.13974
1165 1 1 10.3486 11.2382 3.57765 1.22868
7984 1 1 11.9382 11.7534 3.06657 0.469358
6590 1 1 12.2114 11.2907 2.08583 1.7096
6750 1 1 12.2145 12.2613 0.518093 1.38864
1187 1 1 13.1743 13.3493 2.90617 0.413951
1676 1 1 13.5313 14.1026 3.55471 0.265532
1087 1 1 14.9842 10.077 4.42464 1.9841
1351 1 1 17.4349 11.392 5.03212 0.502753
1528 1 1 0.159687 12.0645 1.21296 0.86469
1360 1 1 1.16033 12.3692 3.54512 0.616211
1116 1 1 1.67059 14.3214 4.80077 6.38314
6720 1 1 5.1668 12.4233 4.81251 3.04749
6563 1 1 1.78186 13.2809 4.5205 1.89213
1082 1 1 3.2233 12.2563 5.29684 0.0195354
1526 1 1 6.0795 14.5985 5.05496 0.779669
7376 1 1 5.45753 11.5372 5.33664 1.16264
1448 1 1 6.56665 14.7749 2.4204 2.84176
1210 1 1 9.35012 14.2326 3.15462 0.408511
6683 1 1 8.88544 13.3458 5.657 1.05211
7464 1 1 8.45936 11.8312 6.17175 0.741431
7990 1 1 8.98101 14.1863 4.47257 1.48392
221 1 1 11.1598 11.3122 2.09983 1.74794
1590 1 1 14.0935 14.7679 4.37605 1.48963
1147 1 1 12.4061 13.7485 4.42742 1.09354
7993 1 1 16.2721 13.6193 3.39511 1.49433
818 1 1 16.6556 12.9501 2.40993 0.146596
669 1 1 17.3384 12.0288 2.21252 3.26265
2798 1 1 15.5719 12.3998 3.72835 0.168517
259 1 1 0.46103 13.4941 2.55692 0.368328
1971 1 1 18.6988 13.3401 3.48189 2.02999
240 1 1 16.2639 10.2511 4.57114 2.54749
608 1 1 0.779951 16.1416 4.20855 1.23171
126 1 1 0.0648526 17.3741 3.94393 1.40686
1282 1 1 2.19214 15.7848 2.89098 4.9359
2755 1 1 2.67856 14.5519 5.22917 0.465007
795 1 1 3.28191 14.8514 2.46466 2.95853
840 1 1 5.77315 12.8762 3.19711 1.97892
834 1 1 5.77907 14.3589 2.0573 0.764654
1337 1 1 5.03588 14.8381 3.83131 0.530744
684 1 1 6.39325 15.1993 1.44234 1.80917
504 1 1 7.36096 15.5966 2.31612 0.794832
902 1 1 5.47161 16.0079 3.28265 1.46798
391 1 1 7.53896 15.7685 4.93468 5.74622