ITEM: TIMESTEP
400
ITEM: NUMBER OF ATOMS
8000
ITEM: BOX BOUNDS pp pp pp
0.0000000000000000e+00 1.8820720577620570e+01
0.0000000000000000e+00 1.8820720577620570e+01
0.0000000000000000e+00 3.7641441155241139e+01
ITEM: ATOMS id mass type x y z v_temp
1634 1 1 17.5934 1.49498 1.45303 2.51498
1142 1 1 17.7716 1.12744 0.537579 1.41052
7604 1 1 0.983057 18.0656 0.393407 1.12999
7210 1 1 3.31329 18.4034 0.765022 1.33473
318 1 1 2.43076 0.0437102 1.66759 2.49174
287 1 1 6.00752 0.361722 37.1911 0.963072
7226 1 1 4.29502 1.08642 0.91877 1.01216
6076 1 1 6.24488 2.45004 0.77804 2.69465
7503 1 1 5.52964 1.66014 0.750628 0.555949
6017 1 1 9.1105 2.01005 0.523384 1.86393
7535 1 1 8.90337 -0.00564372 37.4382 0.477882
2020 1 1 10.5282 1.06553 0.318913 2.21419
696 1 1 12.5318 1.03236 0.100209 0.594607
383 1 1 14.395 0.754296 2.83433 0.932512
640 1 1 12.8161 1.84893 2.8159 1.84289
7930 1 1 15.5634 18.278 1.08502 0.206364
554 1 1 17.083 17.5795 37.53 0.93654
7471 1 1 17.6738 1.92175 36.0949 0.486815
1198 1 1 18.711 1.47503 1.79816 0.537943
576 1 1 0.512256 1.33266 0.532284 2.12569
115 1 1 18.1888 1.82833 37.3418 1.98624
816 1 1 2.73068 2.4795 0.901242 0.345211
6995 1 1 3.63212 2.92923 1.33909 0.860554
2126 1 1 6.10035 1.85332 1.9456 2.29836
172 1 1 4.9669 1.01689 37.4505 1.31747
5756 1 1 7.45357 1.67171 36.9626 1.01039
6659 1 1 8.15146 3.11437 2.67912 3.1069
1206 1 1 9.19422 1.49846 2.55286 0.449659
7660 1 1 6.1605 3.83411 36.6751 0.120288
2305 1 1 10.1981 2.84104 37.1168 1.15071
7725 1 1 10.9229 3.14986 1.2928 0.119647
6691 1 1 11.7062 2.41033 37.5701 2.47583
1308 1 1 13.0915 2.29885 1.47763 0.917668
1269 1 1 15.2432 2.03301 1.83136 0.592781
6873 1 1 12.7949 2.51679 0.413179 1.84166
7830 1 1 13.279 0.418136 1.70263 1.89551
7423 1 1 13.8707 1.52319 2.09129 1.03949
1344 1 1 15.592 2.75591 0.13869 1.36224
7998 1 1 16.971 3.19202 2.33312 0.626994
18 1 1 18.7158 2.39489 1.27899 0.0701464
47 1 1 18.7429 3.20068 0.689546 2.34483
366 1 1 0.455431 4.23221 0.632885 1.00408
1481 1 1 1.29436 0.867185 1.10437 3.25043
7456 1 1 2.58454 4.61019 1.40399 0.284586
7697 1 1 2.62964 3.48247 1.63836 2.37717
402 1 1 3.85493 4.31335 0.016281 0.696999
879 1 1 4.5266 2.49725 0.704466 1.10139
7667 1 1 6.93334 4.3743 36.4224 1.61174
464 1 1 7.62953 3.26389 0.0135887 1.67753
543 1 1 9.79727 5.79324 0.692725 0.928235
2348 1 1 9.48376 5.24259 37.4351 0.281026
7010 1 1 13.9458 3.11958 0.668519 2.16642
73 1 1 9.85997 4.08622 37.5674 2.38757
151 1 1 16.59 4.99545 37.1449 2.73588
1315 1 1 14.9056 1.79911 0.0955271 1.86414
6648 1 1 1.09203 2.72169 1.60195 0.112787
762 1 1 17.4282 5.42803 0.0143217 1.15429
791 1 1 0.183955 5.586 35.5112 0.273551
7980 1 1 0.202492 4.17034 1.73538 1.66541
802 1 1 1.73828 4.76947 2.08509 0.691192
7879 1 1 4.34918 5.21285 37.3408 0.761972
7631 1 1 4.87488 3.67386 0.13469 6.93905
548 1 1 4.39685 6.47402 2.18577 1.4721
217 1 1 6.75624 4.85682 37.274 0.138997
1076 1 1 7.88021 5.02437 1.29583 1.26202
945 1 1 6.43569 6.58937 0.311856 0.605231
697 1 1 9.10233 6.86341 37.1662 1.5563
1330 1 1 11.2831 7.21407 36.9339 0.446529
1380 1 1 14.7251 4.76994 37.3326 0.442286
7911 1 1 14.8743 3.64947 0.638576 3.05282
2160 1 1 16.4773 6.19579 37.0312 1.91853
7937 1 1 17.7999 6.42906 0.634071 1.27813
1713 1 1 18.6878 4.61493 37.0156 2.31735
924 1 1 0.738542 9.32024 1.07593 3.63915
34 1 1 18.521 5.71784 0.263931 2.30763
6762 1 1 0.495518 8.19557 1.14132 0.569903
1158 1 1 1.96251 4.76913 0.382465 2.50685
997 1 1 4.35571 6.52077 0.530858 0.591535
645 1 1 4.52143 6.16809 37.1183 4.15817
930 1 1 4.41505 7.55835 37.0243 1.4478
568 1 1 6.94577 7.19772 2.04185 0.414591
7748 1 1 7.68649 7.31865 1.12703 0.580647
7921 1 1 7.77403 5.9321 1.75326 1.46637
5854 1 1 7.5739 6.42827 35.7759 2.854
6669 1 1 13.0713 7.82132 0.592297 1.41279
6497 1 1 11.8436 7.00529 0.647699 0.738922
7420 1 1 10.7472 7.49883 0.770243 0.703935
214 1 1 12.7793 6.58275 0.696865 2.91377
721 1 1 11.8095 8.96443 37.1133 2.59597
181 1 1 12.5062 5.51583 37.5962 2.47749
193 1 1 12.0479 5.09261 1.27043 1.44215
7972 1 1 15.6924 6.85336 0.842377 1.51588
1359 1 1 14.9755 4.93884 0.891344 6.01298
7641 1 1 16.9901 6.62974 1.60352 0.969128
1318 1 1 0.780516 7.80709 2.22761 3.816
6533 1 1 18.3234 8.11779 2.70497 1.70938
7351 1 1 1.68109 7.91792 0.793332 0.880937
7657 1 1 1.03816 9.97622 36.3244 1.41752
925 1 1 4.13409 8.70655 36.6253 0.325268
6235 1 1 5.83169 7.57695 1.81702 4.23793
331 1 1 5.45677 8.36327 37.3197 0.711676
7958 1 1 7.26262 7.72288 0.250847 1.16686
178 1 1 5.39246 9.33236 0.638555 2.37358
7335 1 1 8.97389 8.02089 1.7551 2.07094
5813 1 1 6.33166 8.90596 0.0101178 1.45727
6538 1 1 9.17866 6.95479 0.530321 0.469694
461 1 1 11.6207 10.493 37.3072 0.987037
7348 1 1 14.4996 7.43734 0.665435 0.910102
6705 1 1 16.4591 8.19255 0.14497 0.651301
498 1 1 13.134 7.46205 2.91249 1.70803
7851 1 1 15.1295 7.66175 3.72596 5.07047
7800 1 1 17.4761 8.88262 1.37395 1.52455
230 1 1 17.7178 7.46072 1.64829 3.68166
7734 1 1 18.6658 9.77225 36.8144 1.89979
1637 1 1 1.1629 8.61269 1.85317 1.60385
6987 1 1 6.3498 9.73956 1.69154 0.23182
7791 1 1 4.88499 8.25044 2.88724 0.270634
5753 1 1 7.09644 9.39054 0.777168 0.582574
6566 1 1 6.52143 10.7193 0.656597 3.88125
1790 1 1 6.56568 10.9887 2.11349 0.914314
3250 1 1 7.48714 11.5524 0.0555677 0.961057
1038 1 1 8.5122 8.35447 36.8333 4.58967
570 1 1 11.9393 8.90218 0.602512 1.07864
7943 1 1 11.5405 8.03518 1.24315 0.517591
2177 1 1 10.2174 8.23499 37.4251 2.87126
86 1 1 13.9162 10.0745 0.503051 0.377796
7979 1 1 12.8072 8.18654 3.63209 1.18893
79 1 1 15.4295 9.94605 0.455591 0.834875
6241 1 1 15.2343 8.2603 1.78936 0.109688
648 1 1 13.8666 8.29659 1.12835 1.11142
736 1 1 16.5647 9.50196 1.13037 0.0801545
1036 1 1 17.0648 10.2079 36.8397 0.880186
884 1 1 17.7894 8.96801 0.282049 2.36937
340 1 1 3.00821 12.7922 0.902146 3.59315
1350 1 1 1.54592 11.594 37.299 2.10144
6578 1 1 4.42681 8.4619 1.05316 0.995233
1172 1 1 3.81999 11.3852 1.1253 1.65428
639 1 1 4.70859 10.8343 0.819637 6.50665
7891 1 1 8.17039 14.323 1.3303 0.194593
7002 1 1 10.9314 9.11981 1.25806 1.10676
1542 1 1 8.76427 10.8802 0.395106 3.11647
6536 1 1 9.42299 10.8268 1.46327 1.2583
7156 1 1 13.1126 10.6489 0.983175 1.10774
7452 1 1 14.026 12.556 1.279 0.818231
7635 1 1 14.6634 11.429 0.665759 0.553135
379 1 1 17.1511 12.2458 0.456258 1.50483
1074 1 1 17.2485 11.3328 37.5675 0.208734
7836 1 1 0.823736 12.5326 37.1208 0.468415
7863 1 1 3.04637 13.742 2.35785 0.0587579
7446 1 1 18.1355 12.4944 37.5264 0.393495
6646 1 1 1.97793 12.2911 1.53003 0.149914
8000 1 1 5.14572 12.5199 2.52138 1.55629
7056 1 1 5.09555 12.7422 1.03204 1.07009
7621 1 1 4.8403 11.4554 1.63604 0.40027
6252 1 1 6.42456 11.8476 0.642692 1.11709
532 1 1 6.22549 10.4892 36.5987 1.72278
7065 1 1 6.39129 11.218 37.3809 1.68211
7457 1 1 9.666 12.6196 1.64046 0.04557
1178 1 1 10.8468 13.3904 1.61097 0.988268
7704 1 1 10.0893 12.4811 2.6206 2.25949
6699 1 1 13.1427 12.565 2.1188 0.245696
1976 1 1 13.5273 12.0213 0.491215 0.365932
57 1 1 15.6083 11.8457 37.1429 7.22198
234 1 1 16.4195 13.3429 1.63806 1.30556
7189 1 1 16.209 12.061 36.1036 0.181415
7847 1 1 2.67674 14.3949 0.85062 0.829216
6243 1 1 5.17993 13.8692 0.935173 1.68181
7051 1 1 4.03793 13.2346 2.31421 0.247749
7610 1 1 5.34839 15.143 1.34344 0.679189
1081 1 1 8.0726 12.4542 0.392676 1.06897
1144 1 1 6.894 12.9108 1.90889 0.823486
6898 1 1 6.56067 13.9976 0.456957 1.16213
67 1 1 8.2203 12.9148 1.28415 0.254141
38 1 1 10.304 13.25 0.651145 0.267663
377 1 1 13.6167 13.4179 1.59475 1.09184
501 1 1 14.8403 12.4917 0.313095 1.27437
7826 1 1 17.5305 13.1347 0.625103 5.91117
7483 1 1 15.5044 12.9585 0.956194 0.267377
7052 1 1 18.7178 14.8396 0.982113 1.57449
579 1 1 17.4951 14.2165 0.722665 0.647672
634 1 1 18.6784 13.3869 0.586234 1.10539
962 1 1 1.60106 13.7527 3.4713 3.32191
704 1 1 2.97273 15.5723 37.1856 1.81412
1529 1 1 3.89008 14.737 1.05179 0.800619
6321 1 1 4.74953 16.3251 37.539 1.56297
203 1 1 4.56942 14.423 1.67875 0.460106
154 1 1 5.99371 13.8606 36.7327 0.440269
734 1 1 7.98799 15.0889 0.183081 3.21785
6379 1 1 7.25796 14.6954 0.947201 0.376671
1908 1 1 10.6872 15.4508 1.0419 1.51309
7569 1 1 8.99207 15.0072 1.23075 4.39918
227 1 1 10.2584 14.8536 1.71222 1.5775
1134 1 1 9.33315 16.5021 1.07019 1.46217
22 1 1 12.0382 16.0431 0.879504 4.12818
1143 1 1 14.0354 14.1355 2.4493 1.84964
1474 1 1 15.8742 14.6533 0.579295 0.0489322
7548 1 1 15.952 14.3442 2.13256 1.4638
668 1 1 17.2817 15.2406 0.13412 3.56289
559 1 1 1.33276 15.1872 0.552794 1.56282
2134 1 1 1.96032 17.7414 37.0699 1.78002
311 1 1 1.94164 16.8962 0.198222 0.290711
7934 1 1 3.07856 17.1352 1.3386 2.09093
439 1 1 2.91945 16.4297 2.25157 1.28687
7767 1 1 6.06441 15.7841 35.7789 2.66826
399 1 1 4.27771 16.5109 0.913028 1.61099
7214 1 1 6.79139 14.8713 37.2044 3.48017
7180 1 1 7.85235 14.84 36.7061 1.88819
6835 1 1 5.45139 18.7122 2.03266 0.398861
7206 1 1 8.40796 17.1244 1.01469 0.0743429
7616 1 1 10.0156 0.380119 36.472 1.07299
841 1 1 10.3233 17.8787 1.11505 0.738088
7736 1 1 9.54884 15.6362 36.6219 0.951228
7779 1 1 11.7021 18.1738 0.139039 0.946897
2343 1 1 12.9321 16.6207 36.3966 0.953207
1916 1 1 14.18 16.8558 37.3269 2.9276
6913 1 1 15.1222 15.381 2.46144 1.00895
2038 1 1 15.9031 16.603 0.697306 0.460247
7855 1 1 18.0291 14.4524 1.98674 1.96314
1042 1 1 17.2319 16.6383 0.251295 1.42415
7999 1 1 17.9971 16.0255 37.246 0.432958
1569 1 1 0.77049 16.9023 0.239463 2.36185
7265 1 1 3.1827 18.1602 1.79137 1.69164
332 1 1 2.25288 17.8341 0.747968 1.04335
6777 1 1 1.45058 18.0873 1.36542 0.461924
6866 1 1 6.9575 18.3869 1.8064 3.76949
7267 1 1 5.34921 0.514075 0.586362 2.53207
1729 1 1 6.20653 17.6416 2.25759 1.0887
43 1 1 6.40904 18.2425 0.961767 1.39424
7581 1 1 7.45435 18.2923 36.7174 0.124874
7678 1 1 7.55817 0.076873 3.16235 2.90034
1895 1 1 5.42441 17.3896 1.37108 2.7993
708 1 1 9.89874 0.669274 1.5937 3.19229
7961 1 1 9.82019 17.4269 2.13427 0.876069
7705 1 1 13.0068 17.2568 2.6371 0.186357
356 1 1 13.061 17.4403 0.6212 0.30033
6636 1 1 15.1753 17.5759 37.3758 2.44754
343 1 1 12.7469 16.4538 1.45623 1.81769
6723 1 1 15.7332 17.4275 1.72316 0.535564
7088 1 1 18.5106 17.7739 36.4391 1.50115
3499 1 1 16.339 1.08788 0.682023 1.54345
7261 1 1 18.552 17.6789 0.80177 1.55798
489 1 1 2.78942 0.261908 4.01018 1.00627
1168 1 1 4.76364 0.309861 2.61276 1.22897
445 1 1 5.78878 16.3173 1.77853 0.307772
1930 1 1 2.9664 17.0527 4.03414 2.25514
1257 1 1 5.0712 17.8708 3.75434 0.400801
497 1 1 5.87425 0.657616 2.5812 0.656498
89 1 1 8.01967 1.1159 3.29512 1.54383
1208 1 1 7.07308 1.28092 3.02077 1.45622
7785 1 1 7.56066 0.671464 2.08415 1.12043
505 1 1 10.7489 1.0364 2.08854 0.430734
7745 1 1 10.5795 1.11322 3.31438 2.24491
1339 1 1 9.93213 1.73428 1.47812 0.905805
677 1 1 12.3558 1.3971 1.22066 0.86805
700 1 1 13.2417 0.731146 2.77215 0.812522
31 1 1 16.7244 2.06265 1.98719 0.352577
7478 1 1 15.6239 18.2832 2.09868 0.165853
787 1 1 15.9193 1.01289 2.27799 1.81681
351 1 1 17.4101 0.074176 2.79672 0.500168
7647 1 1 18.1604 18.5993 1.76471 0.553699
1718 1 1 0.627819 1.24834 3.28656 1.90055
1766 1 1 2.4776 0.433634 2.95904 3.1213
547 1 1 3.20089 1.44087 1.15399 0.735238
936 1 1 3.99602 1.60108 2.00727 0.479877
2026 1 1 4.83419 1.67736 3.09666 0.910439
569 1 1 3.56772 2.11829 0.410977 1.10617
566 1 1 7.36094 2.09329 1.79977 0.585659
633 1 1 6.84225 0.35549 0.935054 4.14381
886 1 1 8.33465 2.41089 3.58673 0.586401
593 1 1 9.3955 3.64853 1.16201 1.19609
173 1 1 8.99782 0.333059 2.23505 4.16558
7332 1 1 8.77244 3.37157 1.81585 1.63281
21 1 1 10.9379 2.28682 2.18662 2.11282
7155 1 1 13.2717 3.04728 3.03662 0.554157
7669 1 1 15.2853 1.73659 3.0167 2.41989
1020 1 1 14.3672 2.59137 3.40038 1.4911
859 1 1 16.0617 0.156322 2.60089 1.33517
7549 1 1 17.4802 2.53577 3.72413 0.764989
1348 1 1 18.0962 3.07242 3.1032 4.0202
7440 1 1 18.7319 2.05076 2.70106 1.17842
7903 1 1 0.374141 2.99933 2.25847 2.07502
7795 1 1 1.74922 7.50795 1.76621 1.1403
7284 1 1 4.8216 3.13735 3.13835 0.235567
6767 1 1 5.43811 4.96661 2.76771 3.68698
835 1 1 6.2312 2.81827 37.4981 3.98968
2824 1 1 4.35554 4.8415 0.995975 0.265658
7718 1 1 5.84269 3.33748 1.62845 0.590655
7653 1 1 6.32006 3.82857 0.351928 0.715447
7215 1 1 6.32383 4.19557 2.08705 0.2686
623 1 1 7.85111 3.8501 1.83859 2.90548
1416 1 1 7.38695 2.39144 0.546479 1.54591
7666 1 1 9.53633 3.31966 2.81373 0.209066
492 1 1 11.147 4.76592 2.27076 2.34942
7387 1 1 10.9102 4.63431 0.812767 2.73512
6541 1 1 14.7029 2.42639 2.51707 1.30498
7246 1 1 15.9196 2.71238 2.28674 1.25297
7938 1 1 16.4372 2.94883 3.33193 0.336503
651 1 1 16.8099 3.46484 1.32745 2.06849
7844 1 1 16.0454 4.9112 0.570882 1.08116
6975 1 1 1.4558 6.72799 2.67896 0.434997
5621 1 1 2.08877 5.66797 2.48117 0.891255
6396 1 1 2.20001 6.35894 1.49729 1.13273
7659 1 1 3.75517 6.77722 1.30811 0.649399
1237 1 1 4.50808 5.43849 2.29862 1.32125
15 1 1 4.77742 5.48053 3.47952 1.03088
7251 1 1 5.55771 5.15281 1.51412 0.97252
7924 1 1 5.63108 5.06208 3.99386 2.84696
661 1 1 6.49789 4.98543 3.46123 2.34931
7532 1 1 6.66414 5.49927 2.46803 0.636418
585 1 1 7.37863 3.76717 2.93485 0.661476
934 1 1 8.86144 4.12408 2.68716 1.08907
6703 1 1 8.98158 5.35292 2.04608 0.601083
1369 1 1 10.3541 7.09911 1.98113 2.56962
91 1 1 12.058 5.17217 2.49551 1.37025
528 1 1 10.1051 4.81545 2.73391 3.402
985 1 1 11.1077 6.10883 1.97179 0.440836
387 1 1 13.9902 3.60183 2.413 0.19905
1473 1 1 15.9851 4.13632 1.53274 0.35146
271 1 1 14.819 4.86139 1.91543 1.94239
511 1 1 14.5171 3.25072 1.57689 0.613776
966 1 1 17.2043 4.55182 0.373992 4.97015
914 1 1 15.4764 3.6036 2.35186 1.21082
7432 1 1 17.9717 4.9157 2.20112 4.00815
7966 1 1 2.94645 7.68813 2.55787 2.04258
206 1 1 16.8935 5.47125 1.93595 2.19789
7967 1 1 2.85619 8.35304 0.0504488 0.578931
442 1 1 3.95401 8.59375 2.40784 2.57656
7944 1 1 3.72353 7.78924 0.497794 1.59918
7803 1 1 6.29877 6.94283 2.97691 0.13049
1177 1 1 7.05006 5.89615 3.6098 0.777825
6136 1 1 8.37273 6.76515 1.63315 1.80283
7663 1 1 8.81214 6.15287 0.143702 1.93952
7138 1 1 9.63797 8.48668 2.38189 0.473639
7904 1 1 8.01577 6.29481 0.847024 2.19885
1051 1 1 8.39087 5.01533 3.31326 2.3907
7422 1 1 14.07 7.06709 3.24932 1.53146
469 1 1 11.5082 5.81009 3.0802 1.26674
7611 1 1 13.1959 5.12041 3.75274 2.13326
188 1 1 11.5731 7.0456 1.83498 0.614614
1329 1 1 12.1572 4.09703 2.14578 0.184629
5812 1 1 15.3073 6.40861 3.59924 0.923795
35 1 1 15.3273 7.11656 37.6187 0.572887
1377 1 1 14.084 4.6401 3.26984 1.81213
2197 1 1 16.2733 5.15397 2.68974 0.846546
7544 1 1 16.6821 5.7796 3.62586 1.06522
223 1 1 15.5076 5.56531 1.97263 2.78448
72 1 1 18.5045 5.72814 1.79934 1.09198
75 1 1 0.163958 4.85476 2.75308 1.57146
2320 1 1 18.0757 6.53647 2.44837 3.72983
5817 1 1 3.98653 7.52738 1.87834 0.205651
7322 1 1 7.89495 8.24341 2.10665 0.463484
626 1 1 6.13752 8.02723 2.64284 0.752625
7738 1 1 5.45016 8.03406 3.98806 2.17416
1648 1 1 8.09898 8.78029 3.14849 0.689077
571 1 1 10.8082 8.63052 3.30872 4.76546
5690 1 1 10.255 8.25268 1.45526 2.18887
2244 1 1 12.067 10.281 0.638522 0.800561
122 1 1 10.2171 5.89764 2.66038 0.804699
1441 1 1 14.499 7.5235 4.42444 2.70696
276 1 1 14.5048 6.38168 1.63758 1.15566
108 1 1 16.7028 8.21628 2.01588 1.43482
186 1 1 18.1172 9.66176 3.56266 1.566
1314 1 1 1.13821 9.52362 37.4369 1.47104
1005 1 1 3.25455 9.06769 1.77459 2.96886
7326 1 1 5.52074 9.21318 2.2254 2.62829
1681 1 1 5.14359 10.3398 1.76979 0.214942
6874 1 1 7.153 9.70001 37.3407 4.88517
1301 1 1 5.50416 9.53292 3.51641 5.86465
10 1 1 5.84428 11.2811 1.31554 0.20442
7459 1 1 7.92835 9.01126 1.44889 1.9727
765 1 1 9.26977 10.6059 2.74345 1.09141
1475 1 1 8.67269 9.6748 1.07014 4.14202
672 1 1 11.5191 8.21032 2.40903 0.489806
6896 1 1 10.2716 10.864 2.47544 0.316607
7538 1 1 11.3684 10.2984 3.03403 0.155014
1193 1 1 12.9014 5.77959 2.03591 0.625347
7185 1 1 14.3849 7.76803 1.91495 1.56524
1906 1 1 13.1982 8.72993 2.76967 0.841899
1426 1 1 12.1556 8.57258 4.56314 2.65495
1478 1 1 15.3753 10.0095 3.67665 4.18556
6561 1 1 18.1629 10.7948 1.74834 0.507169
84 1 1 17.0406 9.65448 2.02318 1.12283
1093 1 1 1.4051 11.192 1.06725 1.97726
300 1 1 0.230117 11.0314 2.47087 5.92017
877 1 1 17.8502 10.1826 0.171009 1.5508
970 1 1 6.30657 10.9109 3.32671 0.514644
7482 1 1 3.78576 10.6912 3.03906 3.06314
7805 1 1 2.84877 11.3937 2.08767 0.414022
1211 1 1 5.94837 10.2638 2.50293 2.23033
290 1 1 5.91136 11.8614 2.52415 1.10686
7643 1 1 7.57209 9.86007 1.85055 0.924255
691 1 1 7.80181 7.24316 2.6998 1.07915
955 1 1 8.64923 11.6565 1.5816 1.52561
1224 1 1 10.4371 11.121 0.702665 0.863771
232 1 1 12.3964 12.001 1.9237 1.44734
7983 1 1 14.2413 10.1593 3.16007 0.58577
296 1 1 14.7913 10.4691 1.04631 1.1808
610 1 1 12.2713 10.3833 1.74378 0.726902
2017 1 1 14.8421 9.94557 2.30279 2.4957
712 1 1 17.474 10.8782 0.859743 2.79024
7470 1 1 16.0886 11.1684 1.40686 3.78338
146 1 1 18.4602 9.41375 1.46701 1.18468
2662 1 1 17.6899 11.9449 1.32336 0.805184
1234 1 1 18.2942 11.7025 2.86216 1.66961
7474 1 1 2.45644 12.9968 3.13756 0.992468
967 1 1 1.49101 11.7223 2.39761 1.25319
7060 1 1 2.39264 10.4815 1.85831 1.53808
369 1 1 2.80526 11.5538 3.19459 1.01552
7249 1 1 3.34758 12.4432 3.71253 2.59302
325 1 1 7.27637 12.1509 0.919046 1.14011
773 1 1 3.79398 11.6404 2.39532 0.742184
453 1 1 6.21089 12.0273 3.88021 1.46301
627 1 1 9.8386 11.6575 3.23634 1.4716
7004 1 1 10.2886 12.6822 3.9558 2.1645
1103 1 1 11.7105 14.2228 1.68837 1.38398
738 1 1 13.0567 10.8138 2.42307 1.02156
286 1 1 11.5437 12.603 1.23575 2.99757
574 1 1 14.9055 12.0282 1.53227 3.08854
1107 1 1 11.8003 11.4265 1.04306 3.11046
7512 1 1 15.6465 11.8376 0.541145 1.76074
973 1 1 15.6223 10.7681 2.53632 3.73588
7772 1 1 1.07305 12.4627 2.03597 0.950474
163 1 1 3.53494 13.7715 3.21708 0.417056
1486 1 1 3.81487 14.32 4.19922 1.92633
7085 1 1 5.18274 13.4944 3.13871 0.788442
584 1 1 6.07768 13.0587 2.58508 1.75855
255 1 1 6.16127 13.5224 1.36514 2.25048
688 1 1 7.19997 11.9987 5.33073 1.52984
1128 1 1 8.79185 13.8885 4.68634 0.866957
7139 1 1 7.71558 14.6825 2.41869 0.3571
1912 1 1 9.30968 13.7027 1.54824 1.95139
1139 1 1 9.25917 14.7552 2.37509 2.59679
7545 1 1 10.9964 13.3593 3.24906 0.561945
423 1 1 12.189 12.8192 3.2358 2.74757
6686 1 1 10.7221 14.2101 0.753811 0.417387
7834 1 1 13.3437 14.9026 2.19451 2.37392
6824 1 1 14.8059 12.6657 2.47661 0.358476
7040 1 1 12.7792 14.4303 1.03252 1.13197
6599 1 1 15.5831 13.3689 2.44021 0.455189
389 1 1 15.183 14.093 2.99333 0.328418
375 1 1 17.5168 13.0395 1.68365 0.407109
7867 1 1 18.5797 12.9993 1.60621 0.125378
1567 1 1 18.5841 11.1366 0.95843 1.38847
2358 1 1 17.8945 13.4874 2.93279 1.2294
1445 1 1 1.58926 15.3459 3.06921 2.27473
7555 1 1 0.733416 15.7209 1.313 5.40773
757 1 1 1.37987 14.7661 1.69841 1.27519
1485 1 1 4.00132 15.6988 2.06662 1.70144
815 1 1 6.39998 15.4977 1.41063 3.52468
7926 1 1 6.72327 16.493 2.04098 0.169932
749 1 1 8.39143 15.7622 0.680508 2.47852
6851 1 1 9.80664 13.609 2.66957 0.58949
872 1 1 8.3406 15.8432 1.98945 4.18285
7700 1 1 8.30108 16.8871 3.82186 0.804605
7489 1 1 13.2333 15.4174 3.32486 2.60603
256 1 1 9.54763 15.8052 2.32689 0.780191
976 1 1 12.0538 14.9443 0.36792 2.61029
381 1 1 11.7283 14.8117 3.31079 2.32799
273 1 1 15.7963 16.2578 2.31366 1.37551
7787 1 1 18.1422 15.1494 36.4032 2.43973
2367 1 1 0.256776 16.9375 1.44661 1.33657
5999 1 1 1.81241 16.1166 1.04049 0.990765
7887 1 1 18.6205 14.2166 3.52919 1.52887
670 1 1 18.1232 17.5537 4.62399 0.591326
7968 1 1 1.24501 16.8908 1.87306 0.636879
1509 1 1 0.32994 15.1959 2.3524 0.12207
6459 1 1 2.18864 17.4699 2.03621 3.81195
1446 1 1 4.24992 18.3734 1.96286 0.0911529
1328 1 1 5.49753 18.3369 0.44869 3.12474
7613 1 1 6.96634 17.476 1.27464 0.491156
3576 1 1 6.48964 16.0569 0.439399 1.68821
292 1 1 6.70213 14.9318 3.95254 2.48747
1582 1 1 8.95186 17.0512 1.86579 2.97557
814 1 1 11.1835 17.0993 0.661599 5.2625
7620 1 1 7.93013 17.1773 2.11794 2.80408
7230 1 1 10.4764 16.7708 2.72907 1.81355
1505 1 1 9.3123 16.6834 3.58807 0.749676
7149 1 1 12.3571 16.091 2.45562 1.18811
781 1 1 11.6039 17.1521 3.34861 1.61168
2661 1 1 12.3216 15.1941 1.67086 1.94016
2150 1 1 14.3154 16.2613 0.853248 1.07931
629 1 1 18.1212 15.7858 1.88083 1.62143
1928 1 1 18.0396 17.1252 1.93967 0.775085
2033 1 1 16.7117 16.0047 1.01654 1.2352
7188 1 1 1.0793 17.9778 3.88152 0.218915
686 1 1 0.410093 17.0667 2.46751 1.0307
7585 1 1 0.774883 17.9541 2.95218 2.56588
1140 1 1 3.52587 0.532883 2.622 0.95805
1453 1 1 5.10095 16.2308 3.95926 1.3475
487 1 1 5.11779 15.4224 2.4003 0.473069
7754 1 1 3.92605 16.5447 4.39131 1.59887
605 1 1 7.76769 18.8117 0.994663 0.00431197
7996 1 1 8.04913 18.3309 2.25116 3.64371
829 1 1 9.23987 17.6569 0.459831 5.08225
450 1 1 9.92643 17.6938 3.29843 2.03187
6027 1 1 11.4555 0.741251 3.91414 1.92175
7987 1 1 11.2547 18.3515 2.05459 2.12095
6673 1 1 12.0982 18.3769 1.25763 0.759826
1785 1 1 12.6434 16.9105 3.67214 1.54922
2106 1 1 14.7654 1.11151 0.946419 3.66608
1110 1 1 14.04 16.5724 2.096 1.03678
1200 1 1 13.8673 17.8721 3.14367 1.13338
129 1 1 16.856 0.0173061 1.83615 1.47255
788 1 1 18.4535 17.2186 37.3169 4.63493
194 1 1 18.4742 18.4112 2.74258 0.28184
310 1 1 0.623064 0.409267 4.18647 2.88578
915 1 1 2.69764 1.42993 3.93968 1.56279
7122 1 1 2.19407 18.2894 4.59866 0.364106
175 1 1 5.10647 1.17998 1.71547 1.6557
1367 1 1 2.77293 0.308846 5.08658 1.94685
7123 1 1 5.63277 2.83983 3.77529 0.766784
1331 1 1 6.03252 0.89435 1.35661 0.841854
7762 1 1 6.57655 0.485113 4.93008 2.53647
293 1 1 7.70454 0.911649 5.01132 0.317644
7964 1 1 8.83041 1.3334 5.29296 1.98032
1658 1 1 9.16065 1.64994 3.61262 1.07475
1749 1 1 9.17464 0.558973 3.34764 1.66762
671 1 1 11.5643 0.54622 2.96359 3.57082
1213 1 1 12.9386 2.20869 3.72332 0.520239
1704 1 1 12.3783 0.190319 3.49087 0.168783
180 1 1 15.0082 18.6332 2.89302 0.411793
906 1 1 12.7693 18.1943 3.085 2.23334
982 1 1 15.2524 0.739638 3.64524 0.926563
427 1 1 17.0202 1.43784 2.94058 2.44843
7914 1 1 18.1703 1.8742 3.78794 1.63054
1205 1 1 16.676 17.1033 4.16655 2.15271
1265 1 1 1.92099 2.29011 4.60554 0.295869
1714 1 1 0.990931 1.9455 2.33137 0.515268
1373 1 1 3.18461 2.52532 4.75728 3.67427
480 1 1 3.83847 1.24368 3.35291 1.18131
656 1 1 4.77371 3.41793 1.98004 2.53241
56 1 1 6.63191 3.41827 3.55423 1.29024
7300 1 1 6.45759 1.8937 3.97741 1.86847
7896 1 1 6.90283 2.83702 4.72663 2.17129
1543 1 1 6.09928 4.11391 3.00927 1.9824
6986 1 1 6.8512 2.32092 2.79621 0.657197
96 1 1 9.82764 1.80818 4.72507 1.24882
1852 1 1 7.82748 3.12623 4.11928 0.726634
385 1 1 8.58479 2.1629 1.44027 0.30783
94 1 1 9.31391 2.46256 2.11832 1.49199
824 1 1 10.1256 1.85601 2.60437 1.19931
7989 1 1 11.4746 1.58935 2.91287 1.52688
553 1 1 12.2211 2.51154 4.9204 1.78915
100 1 1 12.2781 1.36964 3.80046 3.03904
742 1 1 14.5085 3.20546 4.39205 2.76711
946 1 1 13.6773 1.32897 3.97085 1.28109
1413 1 1 15.3225 2.83637 3.74128 0.209559
314 1 1 17.6526 2.36393 2.49447 0.425703
874 1 1 18.3012 2.89235 4.19568 0.78933
1279 1 1 1.82406 3.20509 3.13389 1.07851
109 1 1 4.49409 3.75769 1.09446 0.847753
3 1 1 3.53261 4.01597 1.25513 4.89455
1202 1 1 5.1838 2.64964 4.81311 1.12691
527 1 1 5.37849 3.69645 4.35002 2.52255
1376 1 1 6.41257 3.99295 4.50123 0.340583
479 1 1 8.19807 5.71158 5.16686 1.17292
1378 1 1 8.50777 3.86495 3.92454 1.64805
2736 1 1 7.56141 4.17572 5.42336 3.04303
3337 1 1 10.1294 3.93231 1.98185 1.19533
7625 1 1 10.4876 5.36882 1.51299 0.797911
1664 1 1 12.4682 2.83172 2.18717 3.09778
685 1 1 12.7981 3.22789 1.28446 1.13067
7250 1 1 14.0241 3.52644 3.67528 0.0275554
602 1 1 15.9158 3.98682 3.38972 1.13953
7950 1 1 17.3765 1.37509 4.26921 0.362788
1239 1 1 17.1432 3.66061 3.68548 0.487476
155 1 1 0.563698 3.2263 4.34302 1.92197
6152 1 1 1.47959 2.13576 3.66535 1.63531
7366 1 1 -0.0169252 3.79025 5.02785 0.959978
7841 1 1 18.0176 3.77907 2.15718 1.56458
1596 1 1 2.59524 6.50503 2.81401 1.56091
1717 1 1 3.2686 5.08466 2.29837 2.43528
158 1 1 3.50696 6.49966 2.7583 3.37079
1883 1 1 5.65419 6.05635 3.4824 2.66561
580 1 1 4.09408 4.26306 2.68325 1.13616
5739 1 1 9.37378 5.63348 3.11571 1.39205
890 1 1 9.84152 4.12601 3.66243 2.08341
2103 1 1 9.80619 4.89062 4.42996 0.73283
140 1 1 12.1614 5.15908 4.38621 0.774091
281 1 1 11.8462 4.40031 3.88057 0.372277
1262 1 1 11.9247 7.14092 5.68501 0.345798
446 1 1 12.5471 4.87118 5.66128 3.02976
2075 1 1 14.33 5.39051 4.29799 3.56259
581 1 1 14.666 5.7801 2.65573 0.185943
7468 1 1 14.9243 4.04258 3.25276 4.81608
2432 1 1 17.2595 4.84786 3.91799 1.79668
1336 1 1 16.4257 3.99272 4.88312 0.438449
148 1 1 17.3906 4.44192 2.92702 0.801509
190 1 1 18.1335 3.88933 4.01793 2.97505
3586 1 1 18.0877 5.05898 3.2799 1.03609
7683 1 1 1.93953 5.88558 4.91158 1.77957
238 1 1 3.19207 6.46846 4.33593 0.0743723
729 1 1 5.01569 5.94289 4.3856 4.16998
1754 1 1 4.19446 6.47643 3.93427 0.63561
440 1 1 7.63916 6.3034 4.41394 1.57151
2397 1 1 7.48515 4.74753 2.69992 0.611758
1405 1 1 6.79665 6.86863 4.2928 1.38113
1194 1 1 8.7656 6.78794 2.85849 2.67953
1466 1 1 8.05435 6.06785 3.344 5.22725
177 1 1 10.5394 4.92813 3.67941 2.27396
575 1 1 10.7504 6.37654 3.71268 3.59802
488 1 1 11.8559 6.56342 3.67283 0.0746957
1759 1 1 11.1922 6.87468 5.03148 0.601917
6463 1 1 13.2729 7.86106 1.79659 2.64374
591 1 1 15.6258 5.28357 5.5685 0.171073
7273 1 1 16.5925 6.92901 4.78046 0.551954
3565 1 1 16.3584 5.18248 4.63098 1.0603
444 1 1 0.156699 6.38472 3.19707 1.12803
481 1 1 1.27082 5.89238 3.5268 0.448539
1942 1 1 18.6291 9.93136 2.6315 0.843485
1562 1 1 0.556253 8.26997 3.09486 1.11559
134 1 1 1.78886 6.73893 3.8447 1.74463
875 1 1 1.06899 7.45686 3.88324 0.873328
983 1 1 3.72719 7.53101 4.62573 1.8513
131 1 1 2.39999 8.35984 3.23254 0.366277
7862 1 1 4.79089 6.94222 4.59495 2.05861
541 1 1 7.34807 7.79617 3.85451 3.14587
1802 1 1 8.72115 8.61294 5.44065 0.563664
557 1 1 10.1796 7.51245 4.79083 0.11225
1069 1 1 11.2606 7.24122 2.87176 2.47801
1781 1 1 9.14157 8.10096 4.49594 1.462
1422 1 1 13.8644 5.17194 2.35492 1.08167
1833 1 1 14.2 8.53238 2.89949 1.44842
960 1 1 16.5291 9.36958 3.7067 1.50588
305 1 1 16.8589 7.9156 5.25161 1.69239
1183 1 1 16.1997 6.21531 2.19939 0.53266
1000 1 1 18.7339 7.78658 3.94638 1.18473
1709 1 1 17.7985 6.76472 4.58625 1.47926
2357 1 1 2.07816 10.4224 3.08033 0.886133
2110 1 1 1.09292 9.78403 3.65825 0.684213
1399 1 1 0.683276 8.25259 4.79088 3.18595
1113 1 1 1.34353 9.94384 2.00897 2.10499
7845 1 1 0.566258 10.5215 1.24588 4.41341
114 1 1 2.58984 9.27307 2.65676 0.75582
1917 1 1 4.53575 7.23684 3.38314 1.23738
1280 1 1 3.90101 9.59742 3.66938 0.782077
478 1 1 5.65486 10.2385 4.34439 1.62717
1415 1 1 6.71002 10.0276 4.06797 3.47066
378 1 1 8.43841 9.16693 4.40941 1.00732
374 1 1 9.26242 9.23214 3.15055 3.28427
7531 1 1 9.47992 9.10222 4.51597 2.58291
1460 1 1 12.228 9.11448 3.43429 0.561796
641 1 1 13.7753 9.34987 5.18012 3.12251
6875 1 1 16.926 10.384 3.06399 1.08807
1870 1 1 0.354295 9.30971 4.32942 3.67954
6719 1 1 17.4451 11.071 4.09429 1.70012
1276 1 1 2.51073 12.476 4.60948 0.490627
336 1 1 18.6549 11.2299 3.6833 1.90832
916 1 1 2.07555 9.99286 5.03798 1.26369
1863 1 1 2.11914 11.1767 4.93857 0.210487
2311 1 1 3.27433 10.5563 4.4645 0.112796
1728 1 1 4.03155 11.5938 3.48744 0.530878
408 1 1 4.07915 13.2558 4.06459 0.67764
1417 1 1 4.27497 10.0049 4.3959 0.839841
365 1 1 5.9067 12.4748 1.70987 2.94262
1465 1 1 6.8045 9.06696 3.23114 2.09242
1001 1 1 8.29321 10.583 2.0061 1.6655
1046 1 1 7.08738 10.2197 2.85762 0.946218
277 1 1 10.8654 9.98776 1.83828 3.36925
64 1 1 8.92797 11.3848 3.74459 0.00838631
241 1 1 9.72217 10.6791 4.08793 5.50721
1017 1 1 11.2508 9.18541 4.05095 0.458627
7573 1 1 10.2701 9.63997 3.96941 1.76359
7739 1 1 11.846 8.18675 3.6898 1.21483
433 1 1 12.0585 13.0215 2.12837 3.73224
2062 1 1 12.3577 11.5418 4.81075 0.537272
1706 1 1 13.6427 10.8082 5.1487 1.42065
7444 1 1 13.2966 10.0936 3.30793 2.47971
386 1 1 14.7489 11.863 3.53051 0.255763
1533 1 1 14.9504 10.2974 4.79813 0.724376
683 1 1 17.2096 10.7878 2.1581 0.485526
1965 1 1 15.3378 9.18521 2.80447 2.05989
1349 1 1 18.1221 10.7043 2.99658 0.811588
7350 1 1 0.972876 11.8188 3.59334 0.849343
7927 1 1 3.20475 11.5565 5.89529 2.52551
243 1 1 3.44961 11.4348 4.78556 2.60861
863 1 1 2.09676 9.34106 1.66129 1.07804
1958 1 1 4.94495 13.7824 4.41553 1.09044
344 1 1 5.30744 12.2691 3.42951 2.14329
216 1 1 6.61467 11.1285 4.42691 1.21855
1163 1 1 7.85927 12.0527 3.55769 3.21578
699 1 1 7.63369 12.1043 1.84487 1.48498
823 1 1 11.071 13.3585 4.75379 0.847863
1545 1 1 10.4961 10.9797 5.1697 1.49205
1165 1 1 10.9256 11.3417 3.23874 1.0943
7984 1 1 12.6869 12.0955 3.74418 0.252731
6590 1 1 12.8442 11.7591 2.82048 2.75211
6750 1 1 13.8269 11.4361 1.95783 1.60065
1187 1 1 13.0279 13.4499 2.74136 0.593566
1676 1 1 13.1729 13.6368 4.71336 1.69294
1087 1 1 16.0993 10.6474 4.37468 2.83614
1351 1 1 17.6158 12.1439 5.3582 0.89923
1528 1 1 0.0618959 11.9978 1.873 2.22456
1360 1 1 1.43054 12.6177 3.2685 3.63102
1116 1 1 2.8198 13.3155 4.36356 1.15003
6720 1 1 3.36341 13.6247 5.08538 2.76153
6563 1 1 1.52997 13.2013 4.31871 1.94228
1082 1 1 3.40876 12.5749 5.03477 3.71394
1526 1 1 6.0481 15.0451 4.63553 1.59973
7376 1 1 5.06584 12.7658 4.4073 0.374939
1448 1 1 5.63785 14.3854 3.28537 0.201232
1210 1 1 8.77493 14.0898 3.22278 3.64346
6683 1 1 9.02076 13.8276 5.96599 1.10122
7464 1 1 7.65812 10.7877 5.43547 4.96081
7990 1 1 9.00444 15.1838 4.458 1.43983
221 1 1 11.6783 11.1116 2.01774 2.62845
1590 1 1 13.9917 14.5155 3.9744 1.32029
1147 1 1 12.5063 13.7212 3.74043 1.02718
7993 1 1 15.1354 12.932 3.78065 1.1445
818 1 1 15.9062 12.1317 2.86151 3.07318
669 1 1 16.6006 13.2081 2.68241 3.43181
2798 1 1 16.1267 12.4176 4.11366 0.502094
259 1 1 0.0582858 13.2132 3.18112 1.23405
1971 1 1 0.635253 13.6739 3.8961 3.56849
240 1 1 16.6924 11.2952 3.62027 4.2466
608 1 1 0.894735 15.3142 4.99535 2.38051
126 1 1 0.343799 16.9301 4.70709 1.14044
1282 1 1 2.56721 15.337 1.96604 1.08689
2755 1 1 2.9453 14.9215 5.20778 0.574392
795 1 1 3.56911 14.6519 1.97234 1.64908
840 1 1 4.49185 14.6486 2.85657 2.13216
834 1 1 5.37491 14.29 2.28469 0.405302
1337 1 1 3.81297 15.3352 3.8349 1.78593
684 1 1 6.65154 15.0812 2.51936 5.65178
504 1 1 8.49004 15.2297 3.34089 1.36633
902 1 1 6.0201 16.0916 3.02128 0.208617
391 1 1 7.78022 15.6581 4.69193 1.43822
452 1 1 8.16889 14.6075 4.18575 0.260746
7543 1 1 10.4481 15.7221 5.41007 0.735369