ITEM: TIMESTEP
4000
ITEM: NUMBER OF ATOMS
8000
ITEM: BOX BOUNDS pp pp pp
0.0000000000000000e+00 1.8820720577620570e+01
0.0000000000000000e+00 1.8820720577620570e+01
0.0000000000000000e+00 3.7641441155241139e+01
ITEM: ATOMS id mass type x y z v_temp
7951 1 1 1.1166 17.6799 2.14978 1.84104
328 1 1 0.0935971 18.6923 1.17116 1.30264
1739 1 1 2.56394 1.41514 35.7371 0.386913
1573 1 1 4.84033 18.6926 1.0552 1.31711
1198 1 1 2.89706 2.05012 1.60719 1.88943
7166 1 1 7.63242 1.81006 35.6431 0.534677
7300 1 1 5.87885 17.0378 0.388657 0.837351
1328 1 1 5.8849 1.24403 37.6359 1.68315
1446 1 1 7.97246 1.49044 36.6586 0.0881863
1140 1 1 10.8464 0.539071 1.63071 6.17801
56 1 1 6.86333 3.93997 37.6179 1.41909
6855 1 1 9.48834 -0.054039 0.70119 4.53922
7149 1 1 13.3576 0.145553 36.0808 4.07611
887 1 1 11.26 18.6592 36.2609 0.921879
7745 1 1 14.1063 0.899391 35.5558 1.9249
801 1 1 11.5188 0.7335 35.5641 0.457012
1479 1 1 17.0076 0.395686 0.953588 1.41708
7301 1 1 13.5818 0.864665 0.90228 1.0258
1511 1 1 17.831 0.520151 1.72927 0.584777
6839 1 1 17.1515 2.43486 36.1159 1.3428
1672 1 1 17.8496 1.53915 1.54195 0.978189
7088 1 1 0.381234 0.127373 0.13784 3.29801
1380 1 1 17.2884 0.366239 36.3266 3.02039
7930 1 1 3.75803 18.5881 35.2928 2.57853
508 1 1 0.784069 1.52204 1.7798 1.48121
2026 1 1 4.14019 0.217552 1.73134 4.6246
1279 1 1 4.95463 4.42754 2.20151 0.0706215
6494 1 1 5.63239 2.25042 0.195545 0.102073
7604 1 1 6.98813 2.77577 0.906154 3.25651
1266 1 1 7.67739 1.88089 1.17514 0.21043
324 1 1 7.2118 4.09313 1.06503 0.548565
7751 1 1 6.55895 2.02709 1.95143 0.623068
7564 1 1 8.55936 5.04303 0.793294 0.10618
7653 1 1 6.68955 1.94249 0.0517706 0.793853
6866 1 1 7.97067 2.59819 2.05368 1.62044
775 1 1 10.5016 1.31746 36.8586 1.75772
7283 1 1 9.07067 5.34459 36.3668 0.586377
3337 1 1 12.699 1.21051 36.8703 2.75719
446 1 1 11.1219 2.81046 36.0562 0.833763
350 1 1 13.3084 1.59958 0.151434 1.14139
6850 1 1 13.1947 2.91168 36.1398 0.982592
1183 1 1 16.6792 1.49132 0.0797482 0.366576
1020 1 1 18.1774 5.54021 0.962095 0.425382
6845 1 1 18.3263 2.59181 0.2933 5.29576
7202 1 1 18.7588 3.44777 3.38529 0.862418
1045 1 1 3.55893 4.34105 1.69396 0.964125
1713 1 1 0.89693 0.396639 2.03902 0.996631
6006 1 1 2.31982 2.91183 1.22937 0.820658
7697 1 1 18.6881 4.11244 2.24686 0.754006
406 1 1 3.97675 3.93788 0.249489 2.08847
7612 1 1 6.80075 4.53159 1.91912 0.238313
1333 1 1 9.40431 4.53362 36.9479 0.00961295
7625 1 1 7.41305 3.52593 1.90834 2.8495
437 1 1 10.81 1.78467 0.308096 1.22659
7032 1 1 9.89348 2.36415 1.23681 0.411768
7392 1 1 14.7897 2.90611 0.423064 1.09168
5355 1 1 1.27319 2.52728 0.33546 1.88292
853 1 1 15.066 6.0777 36.8339 2.02335
7595 1 1 17.1603 3.29465 3.50437 1.48763
1037 1 1 0.755898 6.43153 0.749392 3.69063
6423 1 1 17.6622 3.55856 2.06355 1.59817
6875 1 1 16.4492 4.11352 35.9635 7.31448
6987 1 1 3.59341 5.82268 2.02962 0.322794
366 1 1 3.43975 5.46035 34.0105 0.223504
7718 1 1 3.22412 2.81684 2.43116 0.78863
6083 1 1 5.96742 4.00183 2.15159 0.0689942
1310 1 1 2.56207 5.34459 2.31002 2.63145
1723 1 1 5.59026 5.50536 35.3656 1.10257
135 1 1 4.9993 7.12092 0.696413 3.44137
5799 1 1 9.96156 3.14848 3.71076 0.39088
217 1 1 6.26211 6.92481 3.68925 0.536247
2244 1 1 10.6337 3.34172 0.408148 0.692736
6581 1 1 8.60944 0.804689 2.43068 2.89072
7450 1 1 9.68337 4.77649 0.783737 0.162806
7155 1 1 13.4366 3.34618 0.365302 1.19637
6551 1 1 10.2415 1.082 1.11804 3.47849
7544 1 1 15.0023 4.89051 0.588314 6.45655
1377 1 1 14.5969 6.48863 1.56753 1.59312
223 1 1 14.7406 6.9897 2.49427 1.5692
7273 1 1 16.1464 5.28654 37.6689 1.13533
877 1 1 16.4669 2.7879 0.456576 4.11458
645 1 1 18.0825 7.39896 2.14121 0.528368
1427 1 1 0.830723 4.03948 37.1187 0.744275
1562 1 1 3.2206 5.28248 1.13921 2.07279
573 1 1 18.4889 6.31538 1.59629 2.89783
7956 1 1 5.93022 4.75519 36.0588 0.920872
6152 1 1 4.7956 6.5155 36.9104 1.27325
1224 1 1 9.55747 6.75023 1.6546 0.377831
1381 1 1 9.77303 3.68189 1.45589 0.75457
354 1 1 8.90725 4.31001 1.97844 0.240315
6996 1 1 9.27707 4.81914 3.04957 0.647613
7408 1 1 9.97217 3.71638 36.9976 0.769094
7466 1 1 11.7118 5.66024 2.06068 4.54595
973 1 1 10.8323 4.69948 0.739215 0.425492
6949 1 1 11.6947 5.66146 0.764502 1.33354
1664 1 1 11.6338 6.51885 37.0836 4.38666
6997 1 1 12.2428 4.50372 1.2024 3.87993
6470 1 1 12.2707 5.11431 3.26004 5.76951
675 1 1 13.0209 7.42299 2.87761 2.59096
6044 1 1 12.4234 6.21725 2.7029 1.41512
140 1 1 15.6297 7.5383 2.41877 1.09158
276 1 1 12.9927 5.94102 37.237 1.28648
1537 1 1 14.0212 5.87356 2.62269 1.04679
371 1 1 15.6963 7.15551 36.7605 0.969059
7659 1 1 17.6456 5.39083 3.64833 1.5743
3092 1 1 14.2015 8.5883 36.5036 2.51374
1757 1 1 0.157487 7.78849 3.76429 0.534141
7397 1 1 18.7381 9.26496 1.09904 1.38604
1360 1 1 18.543 9.77016 2.37619 0.198539
7942 1 1 2.56155 8.15502 36.7321 2.15972
86 1 1 3.46511 8.86585 0.134954 0.462654
6578 1 1 5.07809 9.42855 2.2889 2.22445
6767 1 1 2.36529 9.76183 1.18349 1.03833
1415 1 1 4.61394 8.32958 35.6628 0.885764
6874 1 1 9.91857 8.15368 37.0201 1.22846
6933 1 1 7.79864 10.4161 0.480811 1.30852
7573 1 1 10.3118 8.10284 0.393248 3.71025
5690 1 1 10.9359 7.65289 37.2408 4.92034
610 1 1 8.9375 9.79955 2.57338 0.322081
5857 1 1 16.3425 9.05053 1.25393 4.53187
1399 1 1 18.3677 12.0929 0.598399 3.47804
5649 1 1 2.6092 9.6238 5.58314 1.9559
7026 1 1 2.87863 9.84018 4.63262 0.355757
158 1 1 3.58527 8.08024 2.69774 0.825107
930 1 1 6.63862 11.5684 37.4793 2.65118
7065 1 1 6.69701 10.2087 1.25077 0.86355
7731 1 1 3.87925 9.06051 2.02961 1.8963
429 1 1 7.42381 8.37885 36.846 0.973957
7002 1 1 8.72771 9.09609 1.18575 2.03283
154 1 1 8.06473 9.40021 4.28918 3.09373
1296 1 1 10.0787 7.15294 0.710965 1.01327
7943 1 1 11.5885 8.90986 1.29993 0.576477
232 1 1 16.1086 9.19212 36.477 0.225748
1193 1 1 14.2356 7.64922 1.6091 0.840942
7021 1 1 13.8178 6.79655 37.3273 3.30601
1120 1 1 14.5843 9.43012 1.07172 2.21238
7548 1 1 13.8311 8.68626 0.959106 0.940995
7800 1 1 17.6699 9.04525 0.127794 1.25501
3472 1 1 18.0728 9.98663 1.53533 1.08386
219 1 1 18.4471 6.70197 36.3677 0.803869
7967 1 1 1.51776 10.1681 5.0835 1.04822
1349 1 1 2.89354 10.6834 4.05257 2.11366
7729 1 1 1.50344 12.318 2.57891 0.239398
7047 1 1 2.63564 13.3621 1.50098 0.825415
48 1 1 5.71051 8.95713 4.7229 1.91233
228 1 1 3.46718 11.427 36.7384 2.67171
1547 1 1 6.46106 8.55607 3.91728 3.97456
1790 1 1 10.07 5.91962 2.7745 1.53178
238 1 1 8.42814 11.5318 0.937226 0.6455
678 1 1 7.91118 14 0.188673 2.21359
1385 1 1 9.40732 11.9495 2.02539 6.48483
64 1 1 7.92948 13.2505 1.30304 1.00334
229 1 1 11.3425 9.85691 37.3065 1.09054
969 1 1 15.7353 10.6313 2.50353 1.47382
1997 1 1 14.738 11.7957 0.719562 0.904303
7512 1 1 15.4941 11.3746 36.5886 2.16712
627 1 1 16.2805 11.0456 1.13025 1.10426
736 1 1 17.2241 9.33586 1.01651 1.22062
7805 1 1 16.7588 14.4595 35.6921 0.204771
549 1 1 2.34583 16.4153 1.96692 0.648869
1971 1 1 3.57776 12.2132 4.4372 2.42758
7621 1 1 4.02704 14.3657 3.46807 0.20568
452 1 1 3.88643 10.5163 2.80782 0.446573
1046 1 1 6.41026 15.0627 37.5642 1.06955
23 1 1 3.47257 13.3621 36.1438 0.604845
6253 1 1 7.23122 8.4969 1.96201 0.362386
6723 1 1 12.6486 12.8706 1.43263 0.308112
423 1 1 16.1506 10.0556 1.75438 0.750744
296 1 1 17.983 14.7991 0.607397 2.43073
7282 1 1 13.712 14.6916 37.0633 0.595011
962 1 1 1.74679 12.3184 1.1001 0.555046
6183 1 1 1.58761 12.4599 37.1477 1.96309
6411 1 1 2.45807 13.2146 0.342542 0.668287
7060 1 1 2.99782 12.2232 1.28626 6.14039
6898 1 1 3.82008 10.9159 37.5916 2.07484
6379 1 1 4.38721 13.8922 2.36564 1.41122
7035 1 1 8.57429 14.2078 2.55681 1.08374
7457 1 1 4.71453 13.3215 0.487142 0.834991
378 1 1 11.6962 14.7056 5.37695 1.17285
5866 1 1 7.97294 15.9831 36.3466 0.415677
7620 1 1 13.882 13.3623 36.7823 5.26036
708 1 1 12.2541 10.8259 1.5779 0.264134
7955 1 1 14.614 11.6518 37.2737 3.1104
1567 1 1 17.6334 11.4551 36.7978 1.67219
7338 1 1 16.8572 14.7823 1.36718 0.431196
336 1 1 15.1706 14.5323 2.52628 0.896319
7261 1 1 18.1562 16.9494 36.9963 4.86684
918 1 1 0.270264 14.8122 0.723735 0.903661
7845 1 1 3.40189 17.7762 37.4148 1.98595
7405 1 1 5.95531 15.5739 1.68988 1.07287
1995 1 1 7.35016 16.7292 4.41387 0.0716964
1561 1 1 5.82884 17.547 36.8947 0.155461
37 1 1 8.8278 15.3379 36.3057 1.50798
6399 1 1 8.05666 14.4053 1.24919 0.48473
961 1 1 9.40342 18.1059 1.74445 1.5345
7950 1 1 12.8353 14.7962 2.57319 1.31167
1144 1 1 10.1757 15.0452 34.3329 1.65724
511 1 1 12.7956 15.3442 37.0486 0.64523
6032 1 1 11.7977 15.9991 36.2514 0.208227
7163 1 1 12.8034 16.3455 36.7977 2.28118
820 1 1 10.8631 15.5037 36.9566 2.90309
629 1 1 14.6223 13.6578 2.16334 0.967416
1529 1 1 15.5896 16.386 37.1672 1.90214
375 1 1 14.2191 13.1794 0.406358 1.88476
7757 1 1 16.4132 13.9162 37.3546 0.536192
7672 1 1 0.753361 18.0225 36.7915 1.00486
1170 1 1 16.9912 14.7836 2.44722 2.07217
757 1 1 0.285045 16.6548 36.3922 0.723476
2476 1 1 1.16221 0.231704 37.1682 1.65188
1984 1 1 17.9809 14.9168 1.8221 0.63614
1136 1 1 1.37346 15.8981 0.369573 0.668859
7248 1 1 4.18706 14.389 0.24644 2.38696
7530 1 1 6.34842 15.9103 3.63407 0.553369
569 1 1 5.98495 14.56 0.804846 2.18832
7899 1 1 7.78232 16.4913 35.3909 0.981754
7736 1 1 10.2587 15.0968 1.05615 1.42665
6673 1 1 8.63577 15.1128 0.555466 4.01944
1103 1 1 9.90845 14.6548 37.0758 2.0164
7680 1 1 14.1489 17.8704 37.2853 0.949954
2106 1 1 12.0438 13.872 0.884727 0.498366
472 1 1 12.9267 14.5989 0.629488 2.40899
2109 1 1 14.5338 0.0900697 37.5566 2.31228
579 1 1 17.0607 17.0992 0.0273627 1.1387
1042 1 1 1.19758 15.2314 1.52727 0.566785
2662 1 1 1.01574 17.9166 35.757 0.362464
668 1 1 1.59594 17.0729 0.496894 1.00927
1469 1 1 3.86745 18.078 1.31313 0.156298
7773 1 1 4.08688 2.39961 1.99538 0.913053
175 1 1 8.03262 2.36036 0.28222 1.36048
895 1 1 8.97888 17.7555 0.805612 1.41686
1993 1 1 10.6347 16.8413 36.6438 3.38733
7753 1 1 10.7329 18.5976 0.795238 0.486957
7568 1 1 12.8659 16.8242 0.15164 0.697355
1308 1 1 14.1879 17.2766 36.1577 0.904026
788 1 1 15.2345 17.4425 34.9282 0.733384
7529 1 1 17.1288 18.1583 0.759918 4.3148
1315 1 1 16.9214 18.613 37.1979 0.362384
7434 1 1 18.4371 17.9914 2.72801 0.673623
910 1 1 1.26045 0.925754 3.88496 0.927603
206 1 1 2.58464 18.6743 4.79314 0.645025
608 1 1 1.77326 5.83937 3.20351 1.95324
692 1 1 3.13633 3.72204 4.12881 0.774358
7818 1 1 9.5311 0.143309 2.91509 0.852678
6079 1 1 6.58718 18.367 0.934746 0.762888
55 1 1 10.861 17.8074 1.91771 0.493131
2103 1 1 7.99588 0.417161 0.610815 1.5713
343 1 1 12.3372 16.6681 1.46423 1.76267
515 1 1 14.1255 18.2625 35.822 1.20991
94 1 1 11.8036 0.0557124 0.647421 0.965858
6659 1 1 11.5977 2.30765 2.68718 0.075173
2348 1 1 13.9606 17.9442 2.829 0.790413
409 1 1 13.3313 18.7764 1.67938 0.578133
7340 1 1 12.2484 0.487008 1.47566 0.27235
281 1 1 13.1353 17.9475 1.01033 1.14223
822 1 1 14.1161 1.50938 3.5196 0.944755
430 1 1 13.667 4.31166 1.29599 0.072817
1928 1 1 15.7683 2.01633 2.04759 0.700731
807 1 1 16.8442 0.391946 3.12284 2.5301
351 1 1 18.056 16.3733 36.0664 0.991078
1607 1 1 17.5285 1.10284 2.59295 1.57081
149 1 1 15.9225 2.38527 2.93426 0.735446
965 1 1 18.0107 2.49721 3.87026 0.607038
2044 1 1 3.40298 4.73336 3.75536 5.37093
1654 1 1 2.03648 2.0593 3.36677 1.08329
104 1 1 4.59725 0.834514 2.79213 0.661542
915 1 1 6.35492 2.32557 5.16598 2.62035
6040 1 1 9.06909 0.808158 1.48148 1.47715
454 1 1 8.06444 4.23347 0.26644 2.38014
726 1 1 12.2198 3.23168 1.9208 0.744559
1270 1 1 13.6334 3.30707 1.46782 0.764755
6241 1 1 13.1088 2.69143 2.2065 3.20546
828 1 1 13.992 2.47487 0.954531 1.23814
7440 1 1 16.4438 3.88449 1.36019 0.451083
7028 1 1 11.407 1.0655 2.75248 0.17198
552 1 1 16.5565 5.68544 1.24928 2.02834
1591 1 1 16.5082 2.78533 1.56165 0.735065
914 1 1 16.5892 2.52368 4.07022 2.29763
7633 1 1 16.9626 5.55434 2.70576 2.05037
383 1 1 17.953 4.38867 3.11842 0.624532
643 1 1 2.85865 1.17977 2.8673 0.980197
115 1 1 18.2918 3.7421 4.25618 2.95366
7660 1 1 0.348112 4.47407 0.870709 0.56036
489 1 1 4.55567 4.53488 3.27374 0.602229
1322 1 1 4.46983 2.27541 2.92864 1.72942
7879 1 1 5.56437 5.07511 2.82018 1.71123
1237 1 1 9.2165 5.25015 1.94886 0.863091
1850 1 1 8.18828 5.55737 3.23265 1.37776
188 1 1 7.10843 5.30665 3.35797 2.74395
7861 1 1 8.6247 3.40599 3.63883 1.2554
6922 1 1 8.15638 2.43023 4.0153 2.11692
580 1 1 6.49569 4.46989 3.07456 0.229491
183 1 1 12.7443 2.46558 5.54264 1.50669
593 1 1 8.48016 3.38003 2.39155 0.201256
7468 1 1 14.6107 4.6312 1.54377 0.0377132
2139 1 1 13.238 4.36279 3.19432 1.84838
1213 1 1 15.1323 4.80962 3.89273 1.90815
1203 1 1 15.5694 6.60788 3.24349 1.35822
982 1 1 1.14028 5.20735 2.20055 0.0843301
1409 1 1 2.28295 8.76102 37.5855 2.43979
7938 1 1 4.40842 4.41156 36.7258 3.65086
1338 1 1 3.41594 7.02234 6.01782 0.483373
936 1 1 2.50136 1.34569 4.49703 0.331162
6605 1 1 6.09584 2.99867 2.07702 1.1754
2318 1 1 5.7542 5.09932 6.23617 3.55314
6216 1 1 5.90752 8.19023 36.3572 4.16312
125 1 1 7.30354 3.03204 3.31959 2.32145
61 1 1 10.8892 1.50978 3.58303 0.627338
6566 1 1 8.66729 4.45676 3.79503 1.30758
164 1 1 12.3352 1.06476 3.55503 1.51392
7348 1 1 12.8654 4.52564 5.12975 0.141783
285 1 1 11.575 2.98328 0.868773 1.3745
5812 1 1 12.8079 6.82275 0.111438 0.994894
651 1 1 16.3526 6.59663 1.9732 0.630985
7358 1 1 0.212355 7.63487 2.60148 1.7071
602 1 1 0.141991 5.45154 1.75414 0.156112
1715 1 1 1.09948 6.10343 1.64719 3.14657
137 1 1 16.8768 4.95262 0.695089 0.497823
314 1 1 1.88145 4.02622 1.10169 0.751326
72 1 1 0.643893 6.0143 3.51645 0.162926
802 1 1 0.926469 8.36837 3.4063 2.84984
6561 1 1 17.7983 6.92087 0.6643 1.27121
305 1 1 18.479 9.59971 5.45961 2.27618
7944 1 1 2.09248 6.32913 1.51399 1.763
7803 1 1 1.65847 9.40682 2.47383 1.96343
1864 1 1 18.4772 5.68589 4.34563 0.343286
6971 1 1 5.96435 8.16536 2.8964 0.908961
190 1 1 1.27328 5.08609 0.385904 0.714863
7387 1 1 8.48799 5.98663 4.20939 3.40076
1781 1 1 9.79596 1.26561 2.94966 1.50542
7094 1 1 10.1243 4.15946 2.21203 3.59325
564 1 1 9.27276 5.5323 37.3267 3.21344
1450 1 1 13.1925 3.60438 4.22581 1.5255
7719 1 1 10.6639 2.9641 2.84352 2.13552
550 1 1 15.4079 7.93568 1.51276 3.1949
108 1 1 9.68511 2.63402 2.23787 0.833689
271 1 1 13.3286 7.47561 4.9735 1.52365
486 1 1 13.5229 6.91619 1.46888 3.93836
956 1 1 15.9538 7.04213 5.45292 1.2362
235 1 1 17.1015 6.88889 2.54942 0.762324
6719 1 1 16.0369 5.23887 3.53408 1.67948
6196 1 1 3.99013 10.7803 4.06058 0.856079
1596 1 1 1.21774 9.07725 1.21285 0.136239
7308 1 1 1.6812 5.95537 37.2056 1.63196
7854 1 1 5.25461 9.4282 6.97152 1.14504
1917 1 1 2.21585 10.2511 2.63422 1.58399
7326 1 1 3.62394 8.55768 3.7688 0.910697
1681 1 1 7.50801 8.19453 0.571844 0.931086
7721 1 1 7.35466 9.79284 2.4847 1.51415
7482 1 1 7.61194 5.79712 2.41829 2.22504
568 1 1 8.23751 9.04228 2.2698 3.26797
1273 1 1 6.57344 5.49575 2.42659 1.97579
7643 1 1 9.77323 9.39794 1.22974 1.07747
277 1 1 9.03154 6.12826 2.79867 1.1199
825 1 1 10.7633 9.95621 3.11652 5.13941
543 1 1 12.6264 8.7343 0.443247 0.816377
7945 1 1 14.6078 10.1561 34.7232 2.78757
790 1 1 15.2409 8.86372 3.38471 1.56551
6159 1 1 1.78264 6.35289 4.23177 0.107879
913 1 1 0.129619 6.66163 4.123 0.885741
669 1 1 15.5189 7.86211 0.0508517 1.12055
79 1 1 14.315 7.42603 0.641722 0.80991
926 1 1 0.96128 7.25661 3.55602 1.46373
205 1 1 0.948104 8.03678 1.3717 1.56255
7717 1 1 2.68588 12.8856 4.15401 1.08608
773 1 1 2.31956 12.6254 6.19511 1.60509
2504 1 1 2.18222 9.82513 6.65308 1.36978
8000 1 1 7.00252 7.56878 2.87376 0.968183
1863 1 1 6.11589 11.438 1.68194 1.2819
357 1 1 2.65293 7.84653 0.608313 2.56674
529 1 1 6.3729 10.1942 3.24216 1.50989
615 1 1 5.23882 5.92573 2.23004 0.0569265
7335 1 1 9.32693 7.93357 3.05392 0.21816
1001 1 1 9.20338 7.83265 1.11151 0.14093
2814 1 1 10.2582 10.778 34.4363 0.528905
7004 1 1 14.6333 10.4312 2.89122 3.22142
738 1 1 12.5202 8.97628 2.33182 3.08032
1906 1 1 13.3933 9.77721 4.6252 2.08014
374 1 1 13.7424 5.88038 1.56507 0.00793859
7913 1 1 11.9793 7.51621 0.387563 1.18413
596 1 1 15.2721 11.6996 2.10194 1.5071
7432 1 1 16.1423 9.71124 2.74646 1.61101
7488 1 1 12.9361 9.78665 37.1552 3.0191
6675 1 1 18.1803 8.15779 2.82818 4.49672
7966 1 1 0.696331 8.84807 2.53612 1.69631
634 1 1 2.0169 9.31177 4.17236 0.607265
7056 1 1 3.58619 10.4473 6.66889 1.89708
6232 1 1 2.51079 11.5723 6.39788 2.17072
146 1 1 5.34276 10.911 4.18467 2.48679
6584 1 1 7.41714 12.1194 1.80733 3.1036
1226 1 1 5.42867 9.02112 37.0332 1.26964
823 1 1 8.25399 10.1712 3.27252 0.458592
955 1 1 11.3152 8.82413 2.29193 0.547739
699 1 1 6.48042 11.9592 3.70307 3.64262
342 1 1 8.42305 12.0656 1.94153 1.99222
574 1 1 10.013 10.2831 0.0658818 1.4126
386 1 1 10.0951 13.9854 0.50187 0.312158
818 1 1 17.2202 11.8794 0.924417 2.19302
2453 1 1 13.5448 10.5962 6.31825 0.97966
2353 1 1 16.0255 15.4021 5.22294 1.24534
600 1 1 15.7713 8.96724 0.522684 2.70907
7888 1 1 15.5123 10.1944 36.9177 0.952572
1079 1 1 0.516427 9.42796 4.02367 0.758958
750 1 1 1.58867 7.99506 0.663446 0.625768
7128 1 1 18.3417 11.5005 1.54693 1.53017
7851 1 1 1.30974 11.2122 2.43771 4.63341
1528 1 1 5.59177 12.9753 2.41108 1.18626
1006 1 1 4.55974 11.4895 4.82815 0.811008
704 1 1 6.37637 12.4173 1.07123 0.233022
7755 1 1 3.67879 11.7885 3.24452 0.332809
563 1 1 5.53244 10.7226 5.43542 0.709115
163 1 1 6.83483 13.3941 0.632582 1.29066
7704 1 1 8.74104 12.4055 2.93655 0.347323
416 1 1 11.7607 10.5368 2.98315 0.452418
7266 1 1 10.3245 13.7854 1.70651 0.932525
976 1 1 14.0476 13.8138 4.43112 0.273509
1189 1 1 14.6255 12.617 1.58615 3.47667
7138 1 1 17.4788 13.7882 0.668163 0.0673426
7999 1 1 15.5955 13.0866 2.11067 0.437259
1143 1 1 16.6318 11.3553 2.07484 0.520942
303 1 1 17.1483 15.6173 4.72467 4.24767
991 1 1 17.727 10.9768 0.901808 0.287049
7772 1 1 0.407988 14.6023 1.82219 1.01352
559 1 1 2.78144 15.2019 4.05015 3.46756
4804 1 1 3.66818 14.8979 2.44035 1.63095
6464 1 1 1.46956 13.444 0.916357 1.32307
1448 1 1 3.04793 13.9841 2.17183 3.31097
7217 1 1 3.21907 16.8319 3.02374 0.685937
7489 1 1 7.3761 13.574 4.13807 1.56446
1210 1 1 6.49 11.9442 2.47857 0.587243
7961 1 1 4.16606 13.4914 1.43717 9.73834
769 1 1 9.29649 13.6176 2.18528 1.28549
1432 1 1 14.4545 12.0703 5.9243 3.50016
2347 1 1 9.58148 14.9587 1.72085 2.23859
7705 1 1 12.0098 13.0387 36.9139 5.8797
6872 1 1 12.4381 14.323 37.2384 2.22794
209 1 1 13.901 13.3328 1.39723 2.71946
1406 1 1 17.1188 14.5274 4.45457 1.46959
1077 1 1 12.4548 15.6358 1.9247 2.22135
255 1 1 16.5641 13.7002 1.71542 0.355236
1910 1 1 18.6992 13.34 37.2353 0.234548
1999 1 1 18.4057 18.0124 0.488708 2.32245
7404 1 1 3.11947 14.2408 0.937078 2.02112
1729 1 1 7.58879 15.0528 0.395424 1.44394
687 1 1 5.72874 16.1875 2.88799 0.743547
239 1 1 11.5029 14.6037 1.41399 4.66102
89 1 1 11.7527 14.9129 2.41508 0.978651
640 1 1 10.8741 11.66 3.39777 1.33553
2373 1 1 12.2373 15.4187 0.905721 2.30115
1439 1 1 13.5416 15.8044 6.24755 2.13972
7052 1 1 12.7272 17.8722 37.0752 0.843866
7444 1 1 14.1453 15.1386 2.86 2.01878
7545 1 1 12.3285 14.5423 35.7204 0.119875
234 1 1 1.8392 13.4392 2.18446 1.2358
6824 1 1 16.4654 18.2221 2.71025 2.07072
1590 1 1 16.6879 15.0617 -0.0222459 0.638271
954 1 1 0.169823 1.22322 4.35388 4.5026
1282 1 1 2.19024 18.6233 3.69482 3.00182
785 1 1 2.69325 15.882 2.97595 2.98054
1634 1 1 2.96815 17.0736 0.975084 2.11549
1245 1 1 4.25936 16.5653 3.45623 0.296832
7957 1 1 4.03309 15.336 1.44636 3.13206
7303 1 1 4.62354 17.3573 1.47634 2.58801
1337 1 1 6.53485 17.2162 2.97858 2.12159
381 1 1 10.7492 17.7661 6.00651 0.705417
1453 1 1 11.3577 15.9681 1.6505 0.195244
2224 1 1 12.4217 17.5886 35.5569 0.0513727
841 1 1 11.181 13.6783 36.388 0.0566087
6582 1 1 10.2245 17.0175 2.28111 1.74837
809 1 1 11.6349 16.2883 0.672134 1.73207
948 1 1 11.6961 16.366 37.3228 2.57125
1186 1 1 13.5057 15.7845 0.864056 6.0724
1986 1 1 14.1576 15.3906 37.6118 2.92563
7497 1 1 13.8846 12.2857 0.899771 5.79616
500 1 1 14.1757 17.8392 0.792965 1.16423
7977 1 1 0.148267 17.1504 0.0167646 0.431227
7116 1 1 18.6219 18.1906 4.3411 3.74068
7947 1 1 0.120725 0.64642 3.4923 2.29596
1509 1 1 2.29118 0.0401645 1.87984 0.332237
332 1 1 4.85085 16.0357 1.38509 1.34836
215 1 1 1.40877 18.6458 6.15163 1.31065
7613 1 1 7.74259 18.3061 0.842593 0.148506
504 1 1 7.54597 15.7047 1.21693 1.80869
96 1 1 3.55799 2.26555 3.42957 1.05477
763 1 1 10.7024 15.774 3.94023 7.40729
1675 1 1 5.43826 17.8331 2.8974 0.938638
1416 1 1 8.50522 15.4871 1.58464 2.59987
1196 1 1 10.2858 16.3846 0.37611 0.464858
898 1 1 8.7526 16.7801 2.30664 1.03083
7452 1 1 10.0955 17.4937 0.538472 1.20305
1339 1 1 13.8731 0.687512 2.53346 2.71041
980 1 1 10.1217 18.3629 36.7881 2.02288
1588 1 1 11.4315 1.26832 1.22991 0.0806221
1589 1 1 14.1292 18.5732 3.67926 3.8372
505 1 1 11.9106 17.8253 1.73584 2.46774
7246 1 1 14.2582 16.7429 3.36315 0.390931
653 1 1 13.8051 17.0249 1.17391 2.24264
1269 1 1 14.0048 15.8164 1.94116 0.661933
1129 1 1 15.4807 13.197 37.174 1.78499
7744 1 1 15.2227 17.8985 3.04919 0.61385
1367 1 1 17.1443 15.5996 1.96457 1.26864
109 1 1 2.10596 3.84242 3.54668 2.50341
845 1 1 1.08644 3.6272 4.2485 1.77096
2089 1 1 3.94772 3.67458 5.18902 1.34629
547 1 1 5.26294 2.41362 2.18122 2.35121
7197 1 1 5.52571 1.58846 4.72209 0.745392
6777 1 1 4.88243 3.15574 1.38873 0.646549
7982 1 1 8.81461 17.75 3.4749 4.68083
171 1 1 7.80801 17.1406 2.9995 2.3744
1734 1 1 10.7731 17.7026 2.92051 0.409835
1466 1 1 8.40862 18.5149 1.57458 0.931894
2204 1 1 10.617 0.336692 3.16425 1.4783
7821 1 1 9.23162 17.6947 2.55885 0.240137
7539 1 1 11.1839 0.372902 37.2198 1.38387
2867 1 1 13.6205 18.8298 5.06302 1.74363
7422 1 1 11.6503 18.3158 4.47616 1.37692
867 1 1 14.798 18.3508 5.02117 1.18646
1007 1 1 13.8227 2.05425 2.80463 1.14349
772 1 1 15.4387 1.48084 3.69973 1.91149
126 1 1 15.6581 4.70068 1.57243 0.284419
194 1 1 17.0637 3.93621 4.55418 1.41704
3242 1 1 18.7957 1.05878 2.22615 0.859608
7937 1 1 -0.0331184 3.9187 5.15147 1.93511
633 1 1 4.73043 3.15445 4.76714 1.29921
1738 1 1 1.0429 3.40385 3.02342 1.34259
2030 1 1 2.20971 2.63961 6.5986 2.95836
1365 1 1 4.06818 1.26674 2.0709 3.40085
1309 1 1 7.21327 17.7346 4.32499 0.592693
1488 1 1 8.00474 2.43836 5.8793 1.26253
1543 1 1 8.62958 1.63988 3.75368 0.677397
1661 1 1 10.6567 1.93925 1.9574 0.069355
7535 1 1 9.94919 16.9319 3.38611 2.61859
189 1 1 7.55518 1.70426 4.60186 1.18836
2177 1 1 9.98068 18.4914 3.82832 1.1304
544 1 1 9.9455 2.13524 3.82912 1.90131
1044 1 1 12.8635 0.319574 0.0824728 2.05565
742 1 1 14.3937 4.49285 2.76974 2.59416
3071 1 1 15.4618 3.43524 1.70646 1.10007
7830 1 1 16.4193 1.3717 3.3466 1.35025
1354 1 1 17.292 1.99371 3.18584 0.39111
7758 1 1 15.5878 2.90389 4.06226 1.08317
7423 1 1 14.7145 0.488033 1.19099 1.0886
874 1 1 16.6358 3.76186 2.40962 0.266097
509 1 1 4.14917 6.05975 3.20589 1.12109
966 1 1 0.870647 6.65668 2.71654 4.45953
2033 1 1 2.17302 4.92035 3.53009 0.269616
2917 1 1 3.25003 6.63475 2.90438 0.090863
2559 1 1 4.1974 6.58259 2.35042 1.74623
7785 1 1 5.26468 3.36175 2.75557 1.52511
1348 1 1 5.9168 0.49855 2.15158 0.532509
7215 1 1 6.24708 3.1994 3.18641 1.61501
656 1 1 6.32283 0.955717 3.4784 0.859282
7924 1 1 8.41115 2.72549 5.00889 2.90007
661 1 1 7.19143 2.69496 4.34645 0.542957
1098 1 1 6.48387 2.64635 6.52679 0.53826
6477 1 1 6.95415 6.3246 3.20238 3.04717
1302 1 1 9.95142 4.25009 3.72536 4.67604
418 1 1 9.42965 3.08354 4.70893 0.33389
6060 1 1 11.7653 0.438421 4.87785 0.488522
6136 1 1 14.0969 3.93818 4.78365 0.667321
387 1 1 8.82941 6.90204 4.65576 3.45759
7185 1 1 12.9385 1.42433 2.52985 1.53912
636 1 1 15.0162 1.9453 0.975262 3.36047
1539 1 1 15.4218 5.795 1.5734 0.541029
1422 1 1 13.946 4.3724 3.84027 1.15866
1041 1 1 16.4852 0.836906 2.05263 1.94186
2202 1 1 0.175771 3.10898 0.981139 0.448486
7284 1 1 15.9834 7.92201 4.47815 2.92939
1374 1 1 3.41686 5.78479 5.58298 1.55938
7841 1 1 2.95942 9.43005 1.96854 1.07177
6026 1 1 4.03352 3.5287 2.43917 0.69759
3 1 1 4.41704 7.21043 3.31688 2.3569
82 1 1 7.54896 5.95174 5.37038 0.918047
985 1 1 5.95416 5.94973 3.33713 3.35853
7123 1 1 7.64341 3.38772 5.00307 1.20319
533 1 1 8.37609 6.7718 5.75941 1.62121
214 1 1 7.79585 9.48276 5.9133 0.190408
7663 1 1 8.24856 4.4969 4.97176 0.13552
1291 1 1 11.8664 2.11199 3.77365 0.812882
7644 1 1 10.8406 7.80322 2.75819 2.99091
588 1 1 14.635 3.20659 4.11501 7.57631
3586 1 1 14.0192 6.29021 4.4929 0.309585
7725 1 1 12.7339 6.50839 3.94878 0.33113
4139 1 1 18.4295 5.0022 5.10317 3.74383
928 1 1 2.08194 5.54071 4.85365 0.434876
7646 1 1 15.858 6.43014 6.46464 1.05815
7992 1 1 1.08389 6.44373 5.02057 0.281426
1002 1 1 5.03288 5.99245 3.74318 1.01463
6804 1 1 18.0198 4.83526 7.53359 3.97307
2162 1 1 1.78015 7.35926 4.40125 0.268506
153 1 1 4.85457 7.87712 4.0086 1.38109
5747 1 1 7.88343 4.40872 3.07932 0.309306
2608 1 1 5.8426 7.12343 1.94887 2.23831
117 1 1 8.73179 5.76451 5.72259 0.854926
2311 1 1 5.72418 6.93924 5.24129 0.58079
7683 1 1 7.82068 6.81083 3.66659 0.210249
2589 1 1 7.88704 8.0238 4.52154 3.69491
553 1 1 9.18127 5.17617 4.94867 0.732603
7782 1 1 12.9758 5.03509 3.9586 1.82055
1784 1 1 12.7325 6.23546 1.26501 2.54191
1460 1 1 12.0499 5.85811 4.45314 0.899447
1927 1 1 14.5271 5.06751 4.71817 1.81366
591 1 1 14.9983 5.78628 7.07519 2.13629
240 1 1 14.5674 6.18902 5.69146 1.37148
102 1 1 17.4009 7.17851 3.67608 0.658896
2798 1 1 15.8613 7.6888 3.47753 0.17044
1728 1 1 1.05694 10.054 3.15315 1.69809
107 1 1 1.46459 9.35461 5.66515 0.95131
667 1 1 16.2433 9.2294 4.18785 1.90158
7242 1 1 3.78608 7.30789 4.16903 1.23275
7641 1 1 0.486872 9.07572 5.96496 2.39837
925 1 1 2.71768 8.856 4.82005 0.344244
1717 1 1 3.88542 4.93925 2.36535 0.959263
5817 1 1 2.35262 7.63555 2.26434 0.543965
1217 1 1 8.36759 8.19039 1.83004 1.12931
404 1 1 4.36852 8.97528 5.64187 0.559002
1194 1 1 8.81308 8.72172 4.04356 0.919166
604 1 1 11.3895 4.64511 2.36998 3.43749
345 1 1 7.01042 9.42287 3.52427 2.25293
7538 1 1 9.74387 8.38762 4.41775 0.87412
7322 1 1 11.5794 3.9326 3.15582 1.57622
216 1 1 9.62819 9.14922 5.64163 0.797494
1069 1 1 7.01381 7.42089 1.57026 1.14176
557 1 1 13.5571 7.98149 3.73699 0.881993
1833 1 1 11.3663 8.81644 3.44296 0.124747
7739 1 1 13.1252 9.78912 3.32582 1.83014
6619 1 1 11.3147 6.19016 2.91734 0.674868
7756 1 1 14.4386 7.96608 7.37214 2.77425
7983 1 1 16.3191 6.86718 4.45906 1.37679
957 1 1 14.7674 4.80843 6.978 1.03435
622 1 1 17.227 8.07485 2.76264 0.240561
7795 1 1 15.3821 9.03364 1.60982 0.746881
2151 1 1 16.2233 8.59008 3.53964 1.59407
230 1 1 18.7695 6.98902 5.2766 1.8534
765 1 1 1.57268 10.8804 7.13011 0.668776
626 1 1 2.88515 6.77538 6.95065 2.41651
478 1 1 4.11607 10.1477 5.00226 0.208178
842 1 1 4.92242 8.47256 2.87864 1.8461
7472 1 1 6.77209 6.4367 1.86886 4.06758
983 1 1 6.16207 7.72967 5.86923 1.41903
1105 1 1 10.5002 12.5544 5.45966 0.804401
3068 1 1 12.3628 11.7236 4.4753 1.76992
3406 1 1 11.0515 10.7476 0.616389 4.76419
1802 1 1 14.0011 8.88813 2.99073 5.03142
2578 1 1 13.9795 12.4918 4.71298 1.61898
1250 1 1 13.8417 9.46352 5.57301 1.34943
7470 1 1 17.838 14.3722 3.03999 1.36182
1184 1 1 16.2444 11.6412 2.91064 0.340061
1677 1 1 18.3464 8.78722 1.96053 2.78855
1287 1 1 0.90596 11.0829 3.72869 0.448196
1082 1 1 2.54586 11.4101 7.94455 0.575438
1709 1 1 18.4992 9.07379 3.2227 2.12299
369 1 1 2.38872 13.4705 5.65426 1.04704
203 1 1 1.52376 13.5255 3.47012 0.900158
7541 1 1 3.34997 13.4025 6.48655 0.7156
834 1 1 0.790351 11.3848 5.5524 2.13815
134 1 1 5.1318 11.9489 5.64912 0.207597
6842 1 1 4.78456 12.4376 3.80157 1.13247
6975 1 1 6.39731 13.9612 4.84761 0.0915772
970 1 1 7.0007 14.381 1.09329 1.50344
1475 1 1 8.34071 7.59806 3.04307 1.81658
95 1 1 6.81762 11.1086 3.06927 1.7749
1968 1 1 9.07065 11.2981 2.70988 1.3021
6693 1 1 11.489 11.9023 0.401614 0.591642
7798 1 1 13.5653 12.0866 3.89421 0.445431
7531 1 1 11.4736 12.9265 3.92376 1.95589
7156 1 1 13.654 11.0348 4.0335 0.682041
1848 1 1 12.3396 11.4269 6.48326 1.67326
38 1 1 14.9577 9.37675 2.61615 1.22005
1072 1 1 16.3697 13.749 3.63957 2.08792
2638 1 1 0.349548 10.7102 2.215 2.50394
1438 1 1 16.9662 10.3235 1.24132 1.73349
6563 1 1 2.60642 11.3598 3.08162 1.50188
1836 1 1 17.5548 12.2666 2.01078 1.10301
1793 1 1 0.826419 12.7288 0.589468 2.65262
259 1 1 0.646552 13.6598 2.36585 1.08695
178 1 1 2.98538 13.6147 3.50852 1.25684
840 1 1 4.62252 11.4369 3.45866 1.69952
1264 1 1 6.14504 8.89663 1.95737 3.5345
487 1 1 7.73114 10.6487 4.2456 1.75445
7139 1 1 7.80786 11.0598 2.91464 0.794539
630 1 1 8.15363 10.5382 1.86292 1.20357
3108 1 1 12.7992 13.6379 36.5651 0.752311
7834 1 1 12.9003 11.5518 1.34801 0.405085
1904 1 1 13.3945 13.2173 5.27603 0.555831
1799 1 1 14.6288 13.2055 6.66491 0.742813
451 1 1 15.8061 11.9396 37.4402 0.641134
1187 1 1 13.7949 15.7562 4.2806 1.51732
7089 1 1 16.3619 12.5736 2.75022 0.502176
7670 1 1 14.8984 16.1281 5.03046 0.092088
5605 1 1 1.28016 16.1572 2.26984 1.31674
6665 1 1 6.02425 10.0253 1.9002 2.9977
245 1 1 5.51409 14.0402 3.15765 0.775147
7811 1 1 3.90735 13.3735 3.04342 1.19716
481 1 1 6.12792 14.4172 2.13053 0.605891
844 1 1 5.8115 15.0787 4.78914 0.288351
885 1 1 8.93817 15.6268 3.13176 2.45672
53 1 1 8.07569 12.1703 5.47337 1.29762
221 1 1 12.0406 11.71 3.21174 1.18907
1295 1 1 9.38975 10.0952 3.57981 0.62817
734 1 1 11.175 14.1535 6.05687 0.267474
7893 1 1 13.4648 12.6149 2.32536 0.396823
7040 1 1 15.587 12.833 3.33258 0.674501
7551 1 1 11.6806 13.9942 7.13733 1.19761
7180 1 1 13.8791 13.8318 6.32619 1.54184
1200 1 1 14.7595 17.1169 5.61169 0.154512
888 1 1 16.7273 12.7209 4.22084 3.4978
1676 1 1 2.03028 14.8565 2.32638 0.198845
854 1 1 18.2024 14.47 4.28427 0.728107
6762 1 1 0.766769 12.5095 3.44754 6.86242
1340 1 1 1.00937 14.8972 2.68408 2.33379
7826 1 1 18.2775 16.5603 2.11477 2.6417
642 1 1 3.17687 15.4696 0.626193 0.945019
7840 1 1 2.87845 14.7433 3.10742 1.56342
7051 1 1 5.08793 16.1038 6.2045 0.997128
480 1 1 3.30405 18.3239 3.82427 0.528804
1505 1 1 6.42171 13.4039 3.90391 1.47133
1128 1 1 3.70015 16.0106 2.66415 1.56331
7174 1 1 4.77873 14.2241 0.995163 3.31743
800 1 1 6.8989 15.1771 4.62273 1.71632
1930 1 1 6.90851 16.0573 5.98603 2.22879
1940 1 1 9.88869 10.7614 2.95781 3.10163
6946 1 1 12.9109 13.0918 4.20454 1.47493
7678 1 1 7.01609 13.5258 2.14843 2.43819
7856 1 1 10.7446 14.428 2.73111 3.03993
3078 1 1 15.4514 13.624 6.1358 0.132075
433 1 1 10.5169 12.3222 2.34958 1.82754
1167 1 1 12.0207 13.3586 4.95396 2.36059
6590 1 1 12.4732 17.3116 5.97351 1.67265