ITEM: TIMESTEP
900
ITEM: NUMBER OF ATOMS
8000
ITEM: BOX BOUNDS pp pp pp
0.0000000000000000e+00 1.8820720577620570e+01
0.0000000000000000e+00 1.8820720577620570e+01
0.0000000000000000e+00 3.7641441155241139e+01
ITEM: ATOMS id mass type x y z v_temp
1634 1 1 0.942454 0.0718921 2.26346 3.16495
1142 1 1 16.6075 1.54994 36.8367 2.76808
7604 1 1 2.56741 16.0625 0.470172 1.69882
7210 1 1 3.88687 17.4212 3.62827 2.14849
318 1 1 1.87682 18.4389 2.93493 0.516709
287 1 1 6.08194 17.6542 0.51406 1.36254
7226 1 1 4.33913 2.38054 1.05535 3.03584
6076 1 1 5.64392 1.59719 1.07449 3.4563
7503 1 1 6.3527 2.7363 0.318238 0.614793
6017 1 1 7.86025 1.44271 37.5722 3.20097
7535 1 1 8.9394 0.716333 0.223732 1.08728
2020 1 1 10.5283 18.3664 37.4542 2.31735
696 1 1 11.6918 18.716 2.24116 0.923082
383 1 1 14.2212 18.7796 2.81764 2.07584
640 1 1 14.0694 1.91235 3.53787 1.50536
7930 1 1 17.1957 18.2234 2.45814 1.93386
554 1 1 15.8208 16.9808 34.44 0.446764
7471 1 1 16.4304 3.65792 33.2548 2.82548
1198 1 1 1.71152 0.608136 1.18331 0.939146
576 1 1 16.992 1.4237 0.662415 3.46173
115 1 1 17.5188 3.46128 37.1691 0.129397
816 1 1 0.846416 3.35963 3.44146 3.20413
6995 1 1 2.24425 3.90885 1.56232 2.60212
2126 1 1 6.54222 1.58403 2.26761 0.721526
172 1 1 5.70631 1.59401 36.7887 2.10653
5756 1 1 9.41065 2.32869 36.3171 1.26355
6659 1 1 8.93103 3.84799 2.93356 3.47119
1206 1 1 8.54654 18.7113 1.04467 4.78167
7660 1 1 4.93859 3.86759 0.727865 1.81775
2305 1 1 10.4492 2.36904 36.5028 0.953609
7725 1 1 11.5276 3.6852 2.62727 3.59048
6691 1 1 12.4009 0.664407 36.6998 3.36968
1308 1 1 13.0924 2.43745 2.2275 0.805882
1269 1 1 17.2172 0.191365 1.2099 1.35442
6873 1 1 12.2904 1.69845 35.4171 1.16112
7830 1 1 14.4446 2.24925 4.37665 0.971409
7423 1 1 13.1685 0.465004 4.78072 2.48456
1344 1 1 17.1638 1.85255 2.14546 2.06416
7998 1 1 17.701 4.25557 1.75519 0.685689
18 1 1 18.6856 2.63901 0.480337 0.2889
47 1 1 0.889066 3.22769 0.471037 0.83339
366 1 1 18.5358 5.21427 0.163987 1.34569
1481 1 1 4.10889 17.1532 1.78575 1.73149
7456 1 1 2.48613 6.88301 3.13682 2.21455
7697 1 1 4.98497 4.31865 37.2483 2.14652
402 1 1 3.89311 4.58167 36.7398 0.383358
879 1 1 4.44516 3.39579 1.54398 0.333911
7667 1 1 5.97816 4.59929 36.8697 1.65033
464 1 1 8.80457 3.24439 36.6367 0.949497
543 1 1 10.1273 5.04353 0.905411 1.23117
2348 1 1 9.14591 5.24826 1.81412 0.0999776
7010 1 1 13.6203 3.00392 4.10031 1.29341
73 1 1 11.1769 3.53742 37.4607 2.79214
151 1 1 15.6616 4.20059 37.1584 0.482586
1315 1 1 15.2346 1.78714 0.447928 1.76608
6648 1 1 1.02759 2.34233 1.09399 2.79095
762 1 1 15.697 7.69513 1.22786 0.517834
791 1 1 17.7276 3.99806 36.3544 0.556645
7980 1 1 0.349583 3.75269 2.16164 1.29555
802 1 1 0.620073 5.19322 1.0475 1.3321
7879 1 1 4.48223 4.90826 0.359115 0.264055
7631 1 1 4.73993 4.47182 1.74152 0.0424942
548 1 1 4.06457 6.05934 2.70966 0.558207
217 1 1 6.54897 5.01475 0.0386396 1.99745
1076 1 1 8.28182 4.41322 2.15872 1.15628
945 1 1 6.39154 5.92987 0.275413 0.827411
697 1 1 10.4495 8.24408 36.0344 1.98189
1330 1 1 10.8584 8.20152 0.212925 1.19674
1380 1 1 14.854 2.1291 36.622 2.00314
7911 1 1 14.1136 2.96922 37.3031 0.745922
2160 1 1 16.6076 6.86122 36.6712 0.611779
7937 1 1 0.427323 4.21112 0.585524 1.02092
1713 1 1 0.260838 3.9335 36.2314 2.40153
924 1 1 0.399328 10.7794 36.5572 0.637223
34 1 1 17.2002 4.29928 35.5329 2.60997
6762 1 1 1.21062 8.11798 0.996346 3.5115
1158 1 1 3.63199 3.16953 37.0715 0.336312
997 1 1 5.26595 7.28035 1.1784 1.90935
645 1 1 4.21298 6.4191 37.0359 0.173817
930 1 1 5.43205 8.69833 37.5302 4.19065
568 1 1 7.79249 8.66721 1.32455 1.81637
7748 1 1 9.64301 7.75266 2.0642 0.716502
7921 1 1 6.4856 6.43663 3.42361 0.596159
5854 1 1 7.59926 6.07815 36.3067 0.0405907
6669 1 1 14.1137 8.12326 1.22982 3.0394
6497 1 1 12.0684 9.184 1.6676 5.38004
7420 1 1 10.4026 5.29369 36.0975 1.18543
214 1 1 10.6218 7.98401 1.26788 3.25139
721 1 1 10.0605 9.85463 0.883462 0.143541
181 1 1 12.5761 7.37942 0.37596 1.00998
193 1 1 10.2707 6.61232 1.26157 2.00491
7972 1 1 14.4102 6.88138 1.16005 2.94833
1359 1 1 15.7556 6.4973 37.5167 0.0970335
7641 1 1 18.4246 7.35929 1.00787 2.11676
1318 1 1 -0.0323204 8.47474 2.05211 2.12698
6533 1 1 0.37005 7.10692 3.25045 0.467297
7351 1 1 0.914154 9.05843 35.6197 0.779069
7657 1 1 1.48241 12.1519 35.4639 0.473343
925 1 1 4.86349 7.69884 37.2088 1.21013
6235 1 1 6.5941 8.49127 0.33001 1.58173
331 1 1 4.39111 8.10414 36.4479 4.18515
7958 1 1 7.06012 7.17102 37.1621 1.35427
178 1 1 5.14483 10.4262 0.145068 0.734008
7335 1 1 8.50733 9.26101 2.50859 0.332532
5813 1 1 6.15932 9.50515 0.58113 0.452674
6538 1 1 10.9874 7.62274 2.68692 2.48042
461 1 1 10.3229 11.45 35.4658 0.258821
7348 1 1 12.165 5.77966 1.1601 1.72939
6705 1 1 0.498808 7.21533 0.387623 1.18321
498 1 1 11.9079 7.16928 4.00647 1.03604
7851 1 1 16.4997 8.45106 2.72351 0.855758
7800 1 1 18.3457 9.42597 2.08584 1.56878
230 1 1 1.13676 6.70591 2.40091 0.521787
7734 1 1 18.6106 11.9155 36.0627 0.948452
1637 1 1 0.169047 9.24454 3.07701 0.567738
6987 1 1 6.2987 9.75671 2.37084 0.098441
7791 1 1 4.0885 8.21357 2.63754 1.70006
5753 1 1 7.23746 10.5481 36.8299 3.93932
6566 1 1 8.30463 9.02427 0.10685 1.40727
1790 1 1 6.54611 11.0341 2.27557 0.103251
3250 1 1 8.11952 9.99637 36.864 0.92113
1038 1 1 9.39155 8.16534 35.6091 0.767186
570 1 1 11.185 9.26869 1.06138 0.987834
7943 1 1 10.663 9.39846 2.7744 1.56619
2177 1 1 9.76942 9.09175 1.94595 1.31904
86 1 1 13.691 8.84316 0.704334 1.04747
7979 1 1 13.2184 10.3939 5.07516 0.180143
79 1 1 17.0226 7.04091 0.724941 1.47835
6241 1 1 16.9356 4.43094 0.703428 1.79421
648 1 1 13.2126 7.99927 2.25544 2.79536
736 1 1 1.15051 9.4951 1.77784 0.201098
1036 1 1 17.8196 9.76438 0.500806 1.42535
884 1 1 17.0603 8.7878 0.729423 1.57029
340 1 1 3.21196 12.7103 0.647729 3.28902
1350 1 1 0.899977 12.271 0.494642 1.573
6578 1 1 3.28186 8.12887 36.5802 0.371125
1172 1 1 4.59231 11.1814 0.786136 2.28208
639 1 1 6.27172 11.0658 37.4829 0.699837
7891 1 1 9.65252 15.3827 37.5657 0.358496
7002 1 1 9.0304 10.174 2.38366 0.357609
1542 1 1 7.88536 10.1898 2.14628 4.32375
6536 1 1 7.95095 12.6394 2.15284 1.47923
7156 1 1 12.4374 10.3476 2.31666 0.0618076
7452 1 1 12.7952 14.2516 37.161 2.45417
7635 1 1 14.1798 10.6071 0.115197 0.270511
379 1 1 15.163 11.3771 37.18 0.466451
1074 1 1 16.4927 10.4089 0.0186755 4.98626
7836 1 1 0.566518 13.079 36.1722 1.74238
7863 1 1 2.5968 15.0736 3.31441 1.1464
7446 1 1 17.1349 11.1589 0.171865 3.57412
6646 1 1 3.66525 13.2229 1.64094 0.228623
8000 1 1 4.75807 13.2213 1.38506 1.13929
7056 1 1 4.07161 14.1459 1.76974 1.0041
7621 1 1 6.17356 11.6635 1.36243 5.36688
6252 1 1 6.702 11.8734 0.393728 0.205626
532 1 1 7.72239 8.93485 36.2068 1.52134
7065 1 1 8.03564 10.8181 0.150368 2.00433
7457 1 1 8.66949 14.9631 1.33107 2.66375
1178 1 1 10.2942 13.1412 2.24292 0.193722
7704 1 1 7.7167 11.53 2.69359 0.291019
6699 1 1 12.9502 11.353 0.429029 1.87111
1976 1 1 13.0571 11.4982 36.9671 2.53134
57 1 1 16.005 10.4014 36.8269 3.29569
234 1 1 16.6132 14.6242 0.551272 1.75292
7189 1 1 18.0266 10.948 35.9215 1.32065
7847 1 1 2.41236 13.7976 2.47095 2.31827
6243 1 1 3.59766 15.7273 0.566146 4.58347
7051 1 1 2.49391 13.627 4.77324 1.60589
7610 1 1 5.58319 14.3977 1.91133 0.833426
1081 1 1 9.54551 13.9386 0.166607 0.35145
1144 1 1 8.13595 13.7073 1.46208 2.18246
6898 1 1 7.25001 13.7301 35.0562 3.32173
67 1 1 7.71557 12.4127 4.533 3.69962
38 1 1 10.2106 13.1029 0.921958 0.680948
377 1 1 12.3069 15.0371 0.939675 0.190187
501 1 1 14.5337 11.4743 0.821668 1.3922
7826 1 1 17.9576 14.4106 0.382139 0.522575
7483 1 1 16.1265 11.827 0.871056 2.98351
7052 1 1 17.1602 15.4123 2.65152 0.397404
579 1 1 17.6025 13.2914 1.35338 0.951693
634 1 1 17.9247 11.8996 0.28207 1.19325
962 1 1 1.40614 13.2226 3.4327 0.856698
704 1 1 5.38493 14.6528 37.3457 1.46733
1529 1 1 2.43971 15.0267 0.778986 1.13033
6321 1 1 5.25788 0.552346 3.50526 4.6905
203 1 1 3.71477 13.5867 3.33662 0.458588
154 1 1 6.93208 11.8452 37.0021 4.34594
734 1 1 8.00244 12.0402 0.158944 2.12178
6379 1 1 6.22952 14.4946 0.411362 0.289666
1908 1 1 9.42284 14.3196 1.0723 1.27478
7569 1 1 8.49709 16.9823 0.427836 0.264267
227 1 1 9.48204 15.8726 1.31563 6.97815
1134 1 1 10.6753 16.2628 36.6236 0.387769
22 1 1 13.9472 16.2861 0.504658 1.57714
1143 1 1 15.6721 13.8262 2.69907 1.24131
1474 1 1 17.1935 14.3268 37.191 3.33144
7548 1 1 15.735 14.8649 1.29322 0.865743
668 1 1 17.6133 15.2828 36.5808 0.376397
559 1 1 1.21819 15.0689 0.0913758 4.87891
2134 1 1 0.922105 18.2799 36.6998 1.64356
311 1 1 0.751023 14.3265 36.825 0.571211
7934 1 1 2.85284 18.7804 2.92872 0.695451
439 1 1 2.57241 15.9029 3.98378 1.3615
7767 1 1 5.51865 15.5594 34.6816 0.0574349
399 1 1 4.52886 15.7562 1.69035 0.203955
7214 1 1 10.531 13.6017 33.6094 0.951385
7180 1 1 7.90256 12.4058 34.8936 0.213427
6835 1 1 6.31051 18.453 1.2718 1.21768
7206 1 1 7.24117 17.0121 0.726858 3.43671
7616 1 1 8.08321 0.209868 37.302 1.885
841 1 1 11.8239 18.004 1.31865 2.1523
7736 1 1 10.8112 15.3936 37.4031 1.39021
7779 1 1 11.1489 17.3431 34.8799 4.68861
2343 1 1 12.3323 17.3248 36.2842 2.11528
1916 1 1 14.3167 14.2737 36.917 2.54371
6913 1 1 15.7103 12.5533 2.12907 3.53594
2038 1 1 15.4576 16.9698 0.0193655 1.88048
7855 1 1 1.38271 14.6188 1.97021 0.584589
1042 1 1 16.0761 16.2922 0.738853 1.79298
7999 1 1 17.7591 16.9166 37.3885 0.222795
1569 1 1 1.08271 16.3105 37.077 0.396048
7265 1 1 2.05648 1.58883 0.790428 1.96755
332 1 1 2.77851 17.4437 1.05102 1.28633
6777 1 1 2.07825 17.3222 0.26144 0.693766
6866 1 1 4.97412 17.3199 2.03571 0.324457
7267 1 1 6.31195 0.445106 37.5125 1.66208
1729 1 1 3.7778 18.0299 1.97989 0.994285
43 1 1 6.84718 15.0414 37.2279 1.6763
7581 1 1 6.63518 16.8129 37.2148 0.570773
7678 1 1 6.91983 18.6456 3.3136 0.757203
1895 1 1 4.10043 14.3364 2.71419 3.60516
708 1 1 9.09753 17.8799 1.05766 1.76939
7961 1 1 8.72436 17.2942 2.82788 1.66703
7705 1 1 11.8387 15.0587 3.32778 1.46576
356 1 1 13.848 17.1003 1.17668 1.52646
6636 1 1 14.9131 17.6524 0.528275 0.594254
343 1 1 12.7563 16.7374 2.16794 1.99547
6723 1 1 13.8052 15.2982 0.984266 0.824217
7088 1 1 17.7218 2.03775 1.13617 4.10525
3499 1 1 16.7242 0.147342 37.5267 0.0817219
7261 1 1 17.8553 17.826 1.65753 1.46948
489 1 1 1.67586 0.0113616 3.92572 1.18203
1168 1 1 6.70007 0.972627 3.0922 1.90973
445 1 1 2.83906 15.8611 2.73893 0.510876
1930 1 1 3.23188 0.872019 3.25474 2.06986
1257 1 1 5.48189 18.8314 4.64919 0.728026
497 1 1 7.18617 1.07253 4.26102 0.482239
89 1 1 9.46712 17.4125 4.49612 0.686346
1208 1 1 7.63361 1.62546 2.82116 0.579262
7785 1 1 5.98759 17.835 2.20782 5.39202
505 1 1 11.8515 3.00865 1.78594 0.0114738
7745 1 1 12.6528 1.32151 2.22935 1.88733
1339 1 1 9.54184 0.220648 0.989362 2.07288
677 1 1 14.2975 0.690716 2.03614 0.625972
700 1 1 11.7593 0.867504 2.64349 0.284848
31 1 1 0.0264794 3.00512 1.53078 0.332947
7478 1 1 16.896 17.8361 1.29519 1.96579
787 1 1 17.685 1.90793 3.19293 2.5854
351 1 1 18.4136 0.372531 1.5028 2.28704
7647 1 1 18.6902 0.257936 0.112638 0.751644
1718 1 1 2.82032 0.524075 4.15751 0.852668
1766 1 1 1.61357 17.7071 3.77051 2.72536
547 1 1 5.12135 1.46781 0.0804162 2.52504
936 1 1 4.29317 2.29652 2.15803 0.206791
2026 1 1 3.89776 3.08191 4.58142 2.00275
569 1 1 5.1583 0.602449 36.9271 2.81446
566 1 1 9.2021 0.337902 3.47178 0.432115
633 1 1 6.29863 0.0509409 2.30185 0.141351
886 1 1 8.22324 1.82506 3.66768 0.169447
593 1 1 11.3819 1.70767 0.612328 1.54371
173 1 1 9.3522 18.1998 2.42371 3.54574
7332 1 1 9.24407 3.67052 1.96966 0.699776
21 1 1 10.1371 2.88281 37.5335 3.57771
7155 1 1 13.1784 3.35985 2.93922 1.04182
7669 1 1 14.498 1.46742 1.38607 1.31288
1020 1 1 13.7374 2.69202 5.12349 2.25426
859 1 1 15.8615 17.5713 2.19132 0.305567
7549 1 1 16.4373 2.17364 5.04006 0.73992
1348 1 1 0.84781 1.48213 1.88505 0.419492
7440 1 1 18.5562 1.57922 1.66881 2.09588
7903 1 1 1.77225 2.32976 1.81574 0.766135
7795 1 1 1.81456 7.53114 3.16692 1.6597
7284 1 1 2.89999 4.77293 3.54331 1.05377
6767 1 1 5.1704 6.44667 3.42144 0.704952
835 1 1 5.83016 3.70517 0.143987 0.975485
2824 1 1 3.88548 4.54482 2.21708 0.580805
7718 1 1 5.29741 2.7974 0.863691 2.67386
7653 1 1 7.27065 3.07096 1.3816 1.34146
7215 1 1 6.67586 5.5668 1.95317 1.68761
623 1 1 7.12746 4.35368 2.24963 0.351496
1416 1 1 7.68376 0.0829545 2.2408 0.193283
7666 1 1 9.72418 3.12549 0.830808 0.498894
492 1 1 10.8444 5.73384 2.16428 0.603092
7387 1 1 10.0508 4.07489 0.0544571 2.51499
6541 1 1 13.8561 4.60215 2.00178 1.37615
7246 1 1 16.4257 1.94001 3.54194 0.342061
7938 1 1 18.8156 1.77888 3.25589 1.90216
651 1 1 17.2393 3.37064 1.575 0.729759
7844 1 1 15.8275 6.25631 36.5048 0.054928
6975 1 1 1.61462 6.91287 1.35609 0.329956
5621 1 1 0.600954 6.79288 4.87259 1.25762
6396 1 1 2.85741 5.65669 3.01259 2.59893
7659 1 1 3.13769 6.12794 2.03027 0.551861
1237 1 1 4.5234 3.24714 2.5973 0.481248
15 1 1 3.54626 5.91797 3.75011 1.07897
7251 1 1 3.15796 3.74119 1.9638 0.574395
7924 1 1 5.1988 6.35328 4.47815 2.33815
661 1 1 5.71059 4.44422 2.73421 1.90818
7532 1 1 6.63354 5.06544 2.79834 1.44631
585 1 1 7.94088 4.11509 3.45081 0.292341
934 1 1 9.86243 4.54657 2.23476 2.07487
6703 1 1 11.7122 4.87964 1.43199 1.79325
1369 1 1 9.30381 7.19536 37.4931 4.31821
91 1 1 13.3412 6.32003 1.32221 0.271764
528 1 1 7.94421 2.83895 3.23268 1.09159
985 1 1 11.9208 7.11492 2.60934 0.787764
387 1 1 15.4127 2.09123 3.6736 1.19371
1473 1 1 15.4627 3.28692 0.622053 0.659073
271 1 1 14.0724 4.11482 1.20106 0.575197
511 1 1 15.7088 1.24177 1.2012 2.39304
966 1 1 17.7632 4.52649 0.0938297 0.483583
914 1 1 14.5401 3.14515 0.873127 1.87255
7432 1 1 18.0169 5.35482 1.36746 1.34279
7966 1 1 3.702 8.63685 1.72737 1.11716
206 1 1 15.6967 2.35806 1.20551 1.65952
7967 1 1 2.25387 8.12896 36.6583 1.13171
442 1 1 2.6491 8.70496 0.973834 2.41523
7944 1 1 3.1933 9.02948 0.0577453 0.653523
7803 1 1 4.95595 8.57857 1.46183 3.02456
1177 1 1 7.50864 6.69393 3.69848 2.33296
6136 1 1 7.58635 6.03242 2.01491 0.735402
7663 1 1 6.95135 6.46104 0.982261 1.40358
7138 1 1 12.4324 9.92242 4.53844 2.20904
7904 1 1 7.24875 5.78433 3.18951 2.3697
1051 1 1 9.55716 5.46431 2.86757 0.813604
7422 1 1 12.3867 5.25533 3.53746 1.07396
469 1 1 12.7458 6.35913 2.42724 0.568417
7611 1 1 14.378 4.51517 5.06187 2.64259
188 1 1 12.1628 8.0646 2.39492 1.05456
1329 1 1 12.7352 4.57115 0.879317 0.798566
5812 1 1 15.048 7.56097 3.4566 2.8776
35 1 1 14.5871 6.24789 35.6248 0.219759
1377 1 1 15.1827 2.85457 1.98309 2.39236
2197 1 1 16.0489 6.39193 2.79549 0.29423
7544 1 1 15.6767 6.52834 4.94766 0.939575
223 1 1 15.2832 6.60039 1.57126 1.65748
72 1 1 17.7281 6.39875 1.17291 1.98191
75 1 1 18.496 3.93201 4.14407 0.421218
2320 1 1 13.4014 8.27935 4.18937 0.56723
5817 1 1 4.28181 7.61806 1.74788 0.238738
7322 1 1 9.36458 7.60903 3.67068 0.451088
626 1 1 5.13381 8.28531 2.55261 0.820862
7738 1 1 4.93363 7.0071 2.30737 0.737949
1648 1 1 8.65975 6.12692 2.29386 2.47493
571 1 1 10.4699 6.64984 4.64215 1.02379
5690 1 1 10.7955 7.2136 3.80901 0.786067
2244 1 1 11.5948 10.293 1.14505 0.334775
122 1 1 9.62557 5.54916 4.30804 2.96805
1441 1 1 14.3845 6.48957 4.85283 2.86341
276 1 1 14.2287 5.95826 0.390244 2.8043
108 1 1 16.2856 8.12605 0.309022 1.09771
186 1 1 15.3993 10.6635 3.27278 0.839777
1314 1 1 18.7943 9.95333 37.3991 0.129147
1005 1 1 2.87248 7.89197 0.248908 4.64176
7326 1 1 5.44336 10.4973 1.36125 1.3972
1681 1 1 4.33377 11.4017 1.86205 2.90617
6874 1 1 7.51651 8.00725 0.0354793 0.228883
1301 1 1 4.58246 9.426 1.92007 1.15102
10 1 1 7.71475 10.9538 1.38102 0.0976973
7459 1 1 8.1613 8.69437 3.56625 0.240095
765 1 1 6.79781 12.4859 2.91333 0.152831
1475 1 1 8.15798 9.82607 3.64443 0.0271025
672 1 1 13.2042 6.344 4.68476 2.62307
6896 1 1 10.3088 11.2171 1.37518 4.82913
7538 1 1 8.8298 11.0253 3.66013 1.65776
1193 1 1 13.9641 6.51505 2.33113 0.565832
7185 1 1 14.4673 5.78923 1.6259 0.403785
1906 1 1 12.7898 8.64508 3.17795 2.52014
1426 1 1 13.1226 8.41869 6.88767 0.428104
1478 1 1 15.0314 8.67924 5.37143 1.77653
6561 1 1 17.5973 9.05945 2.85918 1.80738
84 1 1 14.9394 9.50029 3.0542 0.667547
1093 1 1 2.40117 10.7725 1.04412 4.37453
300 1 1 2.18567 11.7674 3.01551 1.08952
877 1 1 16.6768 9.79215 0.87485 1.06512
970 1 1 6.07231 11.473 3.59469 0.233718
7482 1 1 3.63599 10.1779 2.5201 0.877086
7805 1 1 3.43246 12.1802 1.75823 1.97106
1211 1 1 7.39906 10.7569 3.37342 0.665036
290 1 1 5.7619 12.352 2.18832 0.362186
7643 1 1 6.29238 8.76748 2.1686 0.437498
691 1 1 8.51901 5.79208 3.48236 2.37579
955 1 1 7.28584 12.6611 0.804425 1.93172
1224 1 1 8.70073 9.36122 1.53939 1.56662
232 1 1 11.3111 11.5639 1.70833 1.91223
7983 1 1 15.699 7.33571 2.47021 0.231853
296 1 1 14.0767 10.0667 2.90402 0.0694569
610 1 1 11.7509 8.17209 3.42179 1.68509
2017 1 1 15.0682 5.66686 2.5918 3.58114
712 1 1 18.1485 10.5366 1.41545 2.39968
7470 1 1 17.674 10.4952 2.62793 2.92853
146 1 1 0.55173 10.3676 1.32085 0.723028
2662 1 1 16.8292 12.2415 37.586 4.02458
1234 1 1 17.8066 11.4097 1.08722 1.31841
7474 1 1 4.20048 12.6872 3.75544 1.42148
967 1 1 2.6465 11.3608 2.14064 0.445261
7060 1 1 1.39611 11.3411 1.43296 1.86825
369 1 1 2.82177 10.9349 3.19945 1.28529
7249 1 1 1.99298 12.3686 4.4274 1.57745
325 1 1 7.59251 13.4695 4.6458 2.80729
773 1 1 4.40071 12.5278 2.10259 0.416463
453 1 1 5.58525 9.28489 5.96582 1.07684
627 1 1 10.6906 12.0391 4.5273 1.4075
7004 1 1 11.963 12.3985 3.75095 0.0555775
1103 1 1 12.5699 14.3333 1.72507 1.27369
738 1 1 13.224 9.94277 3.27427 1.01085
286 1 1 11.2304 12.4941 0.563175 2.25653
574 1 1 12.8482 10.5366 1.21901 3.56768
1107 1 1 10.6271 10.2831 1.60358 2.07681
7512 1 1 14.6089 9.96425 36.9129 1.13163
973 1 1 14.9459 9.26621 1.92526 1.68466
7772 1 1 1.30628 13.4725 2.19339 1.60692
163 1 1 5.18537 12.3437 3.16221 0.531382
1486 1 1 3.79919 15.8611 4.34951 2.98177
7085 1 1 5.24441 13.9222 3.59207 0.0555174
584 1 1 5.71736 12.2483 37.5706 1.17462
255 1 1 8.22408 11.7534 1.29017 0.839563
688 1 1 7.99904 14.2405 6.34063 3.34847
1128 1 1 7.73361 14.7362 4.60197 4.48295
7139 1 1 7.56559 17.052 3.37262 1.27813
1912 1 1 8.76162 12.8124 3.91183 0.335029
1139 1 1 8.4495 18.0516 1.98973 1.67476
7545 1 1 12.6467 12.2704 1.77073 2.57737
423 1 1 13.5928 11.3312 1.45617 3.18021
6686 1 1 11.4256 14.0101 1.42135 0.757056
7834 1 1 13.0212 12.7873 4.10716 4.61771
6824 1 1 13.771 12.8343 1.95953 1.16344
7040 1 1 11.3891 15.4513 0.49745 5.85177
6599 1 1 16.8418 12.7661 0.761517 1.42678
389 1 1 15.2785 15.0941 2.10925 1.575
375 1 1 17.4899 14.5942 1.46228 0.43518
7867 1 1 16.8524 12.7057 2.06434 0.570954
1567 1 1 18.7642 11.5614 37.5487 2.0319
2358 1 1 18.2528 14.0934 2.85496 0.56556
1445 1 1 0.316317 16.7605 3.70265 4.09892
7555 1 1 0.897236 13.9293 1.23546 1.34153
757 1 1 0.863871 15.4387 2.51278 3.87591
1485 1 1 3.22952 16.0333 1.60211 4.44312
815 1 1 7.45771 14.8408 0.626278 1.33001
7926 1 1 5.63994 15.9172 1.04681 0.40141
749 1 1 7.912 15.7704 37.2414 2.63989
6851 1 1 9.52727 14.7974 1.94981 1.73612
872 1 1 7.75796 17.2007 36.9489 0.959595
7700 1 1 6.32535 16.5955 4.90722 0.589306
7489 1 1 9.97715 15.3816 2.8175 3.32879
256 1 1 8.70651 16.2889 3.74546 0.740978
976 1 1 10.2567 12.8278 36.869 0.250845
381 1 1 11.535 14.4253 2.51075 2.13611
273 1 1 14.7005 16.4409 1.56123 0.83272
7787 1 1 18.2673 15.3623 35.4686 0.620856
2367 1 1 0.610147 17.4442 0.891318 3.32836
5999 1 1 0.639642 16.4277 2.54031 1.37526
7887 1 1 0.533376 13.914 2.81152 0.253118
670 1 1 16.1401 18.3006 3.2423 2.09142
7968 1 1 0.210056 14.4691 0.380677 1.58274
1509 1 1 18.5834 15.1751 2.56102 0.642728
6459 1 1 3.15923 16.9627 2.34086 5.67343
1446 1 1 6.38043 0.774778 1.24106 0.062236
1328 1 1 4.70441 0.00536135 1.38643 0.814224
7613 1 1 5.90573 16.4667 1.99184 0.963134
3576 1 1 8.15876 18.0295 0.243105 0.0707543
292 1 1 7.21728 13.5915 3.48325 2.78791
1582 1 1 9.33405 17.0065 1.91108 0.514545
814 1 1 8.85075 17.3699 35.1906 0.173106
7620 1 1 8.1318 17.8902 3.34389 2.06843
7230 1 1 10.3599 17.5164 2.30591 1.62922
1505 1 1 9.64364 15.6281 4.11669 1.48821
7149 1 1 11.735 17.6785 2.34977 1.37887
781 1 1 11.2427 17.3615 3.37385 3.87281
2661 1 1 11.4884 15.3834 2.01681 1.04616
2150 1 1 13.8379 15.2799 37.0127 0.265179
629 1 1 16.5235 15.5421 1.58095 2.86567
1928 1 1 0.503739 0.0195574 3.24642 0.64943
2033 1 1 16.5238 18.0313 0.236808 1.05693
7188 1 1 0.583422 17.4262 2.91481 3.20762
686 1 1 2.33346 18.0826 1.76921 0.851246
7585 1 1 0.786415 18.1735 4.27573 0.773587
1140 1 1 3.84779 0.346866 2.38906 2.20668
1453 1 1 5.41047 17.5445 5.00418 0.652814
487 1 1 6.04776 14.1769 3.06322 0.921533
7754 1 1 1.15658 14.4701 4.40972 1.65822
605 1 1 7.72974 18.2836 1.15474 0.560999
7996 1 1 7.54683 0.211938 0.466541 5.73715
829 1 1 10.4467 15.2961 1.54066 0.609435
450 1 1 8.32436 17.0882 4.59735 1.175
6027 1 1 11.7666 17.5216 5.65762 0.396577
7987 1 1 9.79448 18.428 3.49286 2.05168
6673 1 1 11.0582 18.529 3.3467 0.692739
1785 1 1 10.4637 18.6924 1.58543 3.65108
2106 1 1 14.7109 1.31963 2.89862 2.00645
1110 1 1 12.9026 16.0939 0.966327 1.03912
1200 1 1 12.7397 18.5297 0.935602 1.74895
129 1 1 0.425414 1.11564 1.07119 2.66387
788 1 1 0.439478 17.227 36.6523 0.698813
194 1 1 2.27021 18.6659 0.763168 0.948861
310 1 1 0.690744 0.472334 4.5199 2.83405
915 1 1 2.28299 1.89365 2.77663 2.80536
7122 1 1 3.49281 18.6456 3.77451 0.734479
175 1 1 5.16563 1.66622 2.28439 5.48817
1367 1 1 0.784004 0.688856 5.60563 0.282343
7123 1 1 5.18034 3.17186 3.77933 1.43192
1331 1 1 5.32099 18.4255 2.77415 0.781469
7762 1 1 6.19626 1.41134 4.82645 0.968402
293 1 1 8.1286 1.43387 4.72154 2.79215
7964 1 1 10.6997 1.05995 4.38331 0.836785
1658 1 1 8.66784 0.459663 4.47154 1.02718
1749 1 1 9.58144 0.437287 2.01801 0.589032
671 1 1 9.9975 18.5156 4.61682 0.689227
1213 1 1 12.5261 1.7109 3.2523 0.0841987
1704 1 1 12.7073 18.5534 4.37752 1.15644
180 1 1 15.5022 17.4217 3.13576 5.53764
906 1 1 12.5745 0.538716 3.40513 3.30739
982 1 1 15.4032 1.00182 3.77406 2.68578
427 1 1 18.351 2.52108 3.86906 2.23733
7914 1 1 18.1978 1.2586 4.00651 3.10287
1205 1 1 16.26 1.21276 4.49411 4.57617
1265 1 1 0.829385 1.47184 4.27904 2.06866
1714 1 1 2.58514 5.21104 1.54387 2.62654
1373 1 1 5.5154 3.9779 5.775 2.25009
480 1 1 4.61707 18.6074 3.87429 2.27131
656 1 1 6.65903 2.77836 2.11309 0.508396
56 1 1 6.94189 3.23478 3.60114 0.672967
7300 1 1 6.28895 2.55696 4.49207 0.686976
7896 1 1 7.89142 3.77537 5.43787 1.40503
1543 1 1 6.64596 2.11663 3.35193 3.0474
6986 1 1 7.62115 1.80383 1.89494 2.52048
96 1 1 9.05357 2.58813 3.414 1.87462
1852 1 1 7.08502 2.12313 4.98533 5.44682
385 1 1 7.9005 3.42094 2.07645 0.945994
94 1 1 8.56628 1.42415 2.50457 2.22427
824 1 1 10.5979 0.957329 1.83719 2.20504
7989 1 1 9.85153 3.26719 3.15959 0.711978
553 1 1 11.6793 1.3644 4.10304 0.818497
100 1 1 11.7397 2.55405 2.88503 0.0970612
742 1 1 13.9852 3.18229 5.9318 1.55313
946 1 1 13.9537 1.71003 5.77332 3.1481
1413 1 1 15.5318 1.90078 4.63377 0.0726606
314 1 1 17.923 2.5645 2.51005 0.946268
874 1 1 18.6799 2.7571 5.80043 2.27791
1279 1 1 2.74513 2.33155 3.82902 2.008
109 1 1 2.83201 2.7928 2.56774 1.40522
3 1 1 3.98657 4.12295 0.991872 1.35721
1202 1 1 5.99554 4.53051 4.02362 1.9704
527 1 1 4.56688 4.52485 5.87213 0.700706
1376 1 1 7.08806 3.87212 7.15541 0.773041
479 1 1 8.62677 6.26109 6.73246 0.408116
1378 1 1 9.82099 3.80975 5.39813 1.44837
2736 1 1 6.79453 3.33352 6.04489 1.98381
3337 1 1 11.3598 4.02647 1.68247 2.46066
7625 1 1 10.5719 4.15496 0.957029 4.43513
1664 1 1 11.8675 3.79602 0.767096 3.24521
685 1 1 12.8782 4.76715 37.4429 1.18656
7250 1 1 15.5464 4.18372 4.68893 1.05164
602 1 1 17.9727 5.30838 4.28653 1.36619
7950 1 1 17.2446 0.515372 4.1511 0.111464
1239 1 1 16.2545 3.9156 3.75978 1.12541
155 1 1 0.525976 2.76509 2.63849 1.83952
6152 1 1 2.60936 1.59161 1.77618 0.862636
7366 1 1 18.8517 3.82572 5.43813 1.81724
7841 1 1 18.1023 3.44816 0.504442 1.49946
1596 1 1 1.13013 8.38486 2.4356 1.07665
1717 1 1 6.02992 5.52309 3.68096 3.56081
158 1 1 2.18836 7.63234 0.749153 2.41366
1883 1 1 4.1611 6.72634 3.5687 3.42045
580 1 1 5.30077 2.64339 2.18596 0.462157
5739 1 1 7.81475 5.75391 4.83571 0.131474
890 1 1 7.99888 3.08761 4.33067 0.553484
2103 1 1 10.5623 2.34393 3.64463 0.0871042
140 1 1 11.7927 6.10614 3.10939 0.443817
281 1 1 11.7129 4.06545 4.03226 0.272352
1262 1 1 12.3034 6.02475 5.53809 0.669164
446 1 1 12.4169 4.17378 4.87616 1.31526
2075 1 1 14.5186 5.04637 3.70343 1.37761
581 1 1 17.0986 4.3694 2.81628 1.52997
7468 1 1 17.329 3.152 3.08288 0.590903
2432 1 1 16.9919 4.71034 4.31206 2.06582
1336 1 1 13.9756 4.11729 6.72992 0.830462
148 1 1 18.2878 4.94931 2.80976 1.47462
190 1 1 1.93854 4.63886 2.34235 2.24721
3586 1 1 18.337 4.8902 5.74528 4.39951
7683 1 1 0.996133 6.21127 5.81315 0.337735
238 1 1 4.52693 8.02818 5.46673 2.69192
729 1 1 5.47038 5.04165 6.2998 1.5518
1754 1 1 1.55507 5.6708 4.67255 0.0214035
440 1 1 7.72575 7.32046 5.68032 0.40505
2397 1 1 6.72383 5.85985 4.48346 1.27961
1405 1 1 7.57701 6.98259 1.60421 0.866778
1194 1 1 10.0793 6.3984 2.15523 0.723611
1466 1 1 8.97801 4.41085 6.2502 7.56908
177 1 1 10.4695 4.14646 3.1068 1.00658
575 1 1 11.618 6.1134 4.26247 1.25105
488 1 1 14.3363 7.92085 4.44777 0.267826
1759 1 1 10.6914 5.6186 4.5422 0.883573
6463 1 1 14.1525 8.79172 2.29282 4.64229
591 1 1 15.7894 6.34882 3.83602 0.458891
7273 1 1 17.6156 6.9147 5.25469 3.05772
3565 1 1 15.7593 7.62319 4.24414 0.556264
444 1 1 18.5481 5.77179 2.16083 2.48898
481 1 1 2.05284 8.44843 1.80484 1.92598
1942 1 1 16.7997 9.72062 2.71462 2.58892
1562 1 1 0.813891 5.74756 3.03945 0.614363
134 1 1 3.48899 7.45587 3.88501 0.162578
875 1 1 0.788468 4.71635 3.11187 1.24722
983 1 1 3.91496 6.99061 5.43869 0.228675
131 1 1 2.20656 8.26612 4.14079 3.87773
7862 1 1 4.91004 7.37796 6.23494 1.09579
541 1 1 9.4625 8.41364 4.33711 0.604738
1802 1 1 9.63152 9.1376 5.3374 1.74638
557 1 1 9.31293 6.90215 5.06868 0.533536
1069 1 1 12.2162 6.84588 1.15984 0.479478
1781 1 1 9.12959 9.9033 3.97932 0.462565
1422 1 1 14.7002 4.11512 3.16317 0.245695
1833 1 1 13.04 7.1776 3.50049 1.53003
960 1 1 17.2631 7.73114 2.58071 1.92337
305 1 1 17.4018 9.10503 6.0472 0.0663099
1183 1 1 15.9695 4.3454 2.1645 1.7756
1000 1 1 18.4514 9.20741 4.71878 0.754577
1709 1 1 18.3269 7.2388 4.56227 0.876835
2357 1 1 3.16126 11.917 3.47368 1.90773
2110 1 1 1.01242 9.76224 3.03651 0.371223
1399 1 1 0.268093 8.09975 4.23012 2.57928
1113 1 1 18.4272 9.90783 3.81444 1.9385
7845 1 1 1.57096 12.5584 1.58194 0.571459
114 1 1 2.42672 10.1602 2.66442 2.10339
1917 1 1 2.99965 8.09272 2.81339 1.34772
1280 1 1 2.1537 9.45719 1.65713 1.52422
478 1 1 7.4339 10.2814 4.32436 1.92855
1415 1 1 6.1385 9.13855 3.35343 0.323983
378 1 1 9.91717 11.5478 3.84912 0.244916
374 1 1 11.097 11.0764 4.91121 0.475972
7531 1 1 10.2952 10.6574 5.75642 1.63669
1460 1 1 12.135 8.56655 4.36073 0.454523
641 1 1 14.9478 10.1628 5.58344 0.403595
6875 1 1 17.2785 9.12177 1.80753 1.35226
1870 1 1 17.4498 9.77956 3.67604 0.30128
6719 1 1 18.0254 10.5165 4.73609 0.46591
1276 1 1 2.56118 11.6805 5.07439 1.69935
336 1 1 0.744601 10.3983 3.95023 3.01527
916 1 1 4.35209 8.98487 4.95333 1.72203
1863 1 1 2.79028 10.2396 3.92561 2.04528
2311 1 1 3.74444 10.5716 3.55218 0.64914
1728 1 1 1.98706 11.1574 4.16845 4.57946
408 1 1 5.89318 13.4458 4.30182 2.0299
1417 1 1 6.371 10.4953 3.29516 1.50222
365 1 1 7.17179 11.7769 1.57576 0.919052
1465 1 1 7.76359 7.34621 4.63941 0.776994
1001 1 1 7.15971 9.3979 1.77121 3.52632
1046 1 1 7.89852 9.73416 0.910659 3.84194
277 1 1 11.1595 9.37408 3.64055 1.13394
64 1 1 10.6259 12.669 5.46525 0.47536
241 1 1 10.7824 12.2555 6.71156 8.493
1017 1 1 11.9666 9.95805 5.6277 0.989232
7573 1 1 10.1137 9.01667 3.77326 2.10558
7739 1 1 11.8219 7.63861 5.02031 0.702087
433 1 1 12.4136 12.9921 37.5872 0.131087
2062 1 1 11.2183 11.8864 5.71983 0.258718
1706 1 1 16.2915 11.7581 5.53107 2.29416
7444 1 1 13.8174 11.6925 2.46441 5.36125
386 1 1 15.2671 11.6761 2.72833 1.05767
1533 1 1 15.4016 9.5989 4.92667 0.781473
683 1 1 15.5985 10.8683 0.421228 1.7275
1965 1 1 14.3183 10.2597 3.94238 1.53848
1349 1 1 15.5312 10.0224 1.11684 4.03424
7350 1 1 2.67943 10.4971 4.93157 1.86372
7927 1 1 3.37717 12.0833 7.55649 1.2326
243 1 1 3.23275 11.3038 4.32982 0.406209
863 1 1 1.70389 10.6472 2.07999 1.87756
1958 1 1 6.83429 14.2937 4.40944 1.24057
344 1 1 5.56384 10.51 4.18938 1.78435
216 1 1 8.2732 11.2187 4.54347 1.22323
1163 1 1 6.5451 12.3923 3.99736 1.03769
699 1 1 6.90704 11.3214 4.36972 3.10423
823 1 1 8.51781 12.2587 5.53561 0.169843
1545 1 1 12.4696 12.3379 5.36419 0.358281
1165 1 1 9.1176 12.7879 2.44565 2.35204
7984 1 1 11.1418 10.3609 2.46581 0.0316783
6590 1 1 12.2113 11.1673 1.60719 1.44226
6750 1 1 10.9114 11.2662 0.355215 0.852315
1187 1 1 13.035 13.7549 2.47876 0.548369
1676 1 1 13.7379 13.8446 4.10034 1.18636
1087 1 1 15.4621 10.697 4.79581 0.737137
1351 1 1 17.6993 11.5626 4.37228 0.509927
1528 1 1 18.7636 11.8938 0.912521 0.714544
1360 1 1 0.704275 11.8704 2.3998 2.64242
1116 1 1 0.606698 14.896 3.53914 1.65939
6720 1 1 5.63257 12.8927 5.2928 0.347653
6563 1 1 1.4165 12.225 3.62491 2.05229
1082 1 1 2.99626 12.5031 4.27948 0.164646
1526 1 1 6.37923 15.0543 6.19317 0.774001
7376 1 1 5.15849 11.6355 5.57454 1.57154
1448 1 1 8.44294 13.9876 3.31558 0.321057
1210 1 1 8.5571 14.4507 2.26495 2.10455
6683 1 1 8.52927 13.2776 6.43435 1.02269
7464 1 1 8.87881 12.5353 7.15588 1.47056
7990 1 1 10.318 14.3639 5.35698 2.56146
221 1 1 9.98774 10.5181 2.65672 3.5386
1590 1 1 15.4852 12.805 4.48425 0.814731
1147 1 1 10.86 14.5438 4.40275 1.61588
7993 1 1 16.6466 13.2578 3.14552 1.69841
818 1 1 16.4477 11.3741 2.15733 0.595402
669 1 1 16.5311 10.8071 1.10823 0.495049
2798 1 1 16.0043 11.5681 3.98549 1.78387
259 1 1 0.172207 12.666 1.84745 0.458025
1971 1 1 18.2712 13.1419 2.49022 1.24802
240 1 1 15.5205 9.97269 3.96106 1.83781
608 1 1 18.5299 18.1083 2.5709 3.34505
126 1 1 18.6585 17.834 4.30561 1.06517
1282 1 1 2.14749 14.9066 4.64204 1.53196
2755 1 1 3.50784 13.9451 5.36586 1.46263
795 1 1 4.01789 14.7876 4.95742 2.39648
840 1 1 6.36735 13.9792 5.64934 0.21026
834 1 1 5.46009 13.4346 2.39054 3.78293
1337 1 1 6.24814 15.4876 4.30531 0.38051
684 1 1 4.74539 15.5395 0.324609 3.21258
504 1 1 6.92 15.181 1.39391 0.709992
902 1 1 7.02847 14.9122 3.50581 1.77416
391 1 1 7.43642 13.9571 5.55803 0.110536