ITEM: TIMESTEP
4500
ITEM: NUMBER OF ATOMS
8000
ITEM: BOX BOUNDS pp pp pp
0.0000000000000000e+00 1.8820720577620570e+01
0.0000000000000000e+00 1.8820720577620570e+01
0.0000000000000000e+00 3.7641441155241139e+01
ITEM: ATOMS id mass type x y z v_temp
7088 1 1 18.0118 17.7206 36.101 1.55548
677 1 1 0.907133 0.549003 1.42692 1.88438
6814 1 1 5.36871 0.862699 2.17838 4.41345
2103 1 1 6.70587 17.6219 3.28909 0.426543
1134 1 1 8.36714 2.18873 0.964998 1.37457
6551 1 1 9.34149 2.05 0.821115 1.03415
1588 1 1 11.8819 3.79858 1.17194 1.5199
6121 1 1 9.93598 17.6925 0.190418 2.22731
94 1 1 11.6455 16.9968 0.823805 1.44373
1044 1 1 11.1868 0.396336 0.279253 3.45061
7796 1 1 11.6313 18.2723 0.429185 0.210115
7301 1 1 14.1046 1.73164 1.51513 2.52905
7423 1 1 15.4822 0.702303 1.59447 0.452427
7960 1 1 16.0481 1.26663 3.60427 3.77565
1479 1 1 15.6982 17.8682 37.2851 1.53141
2221 1 1 16.3272 1.57524 0.210423 0.416082
5355 1 1 1.09256 3.62444 2.2136 1.6565
859 1 1 2.73281 1.01875 0.131598 1.59115
776 1 1 3.29882 18.3942 0.764253 5.86496
6494 1 1 5.80045 4.17289 0.961191 2.7654
7412 1 1 4.00065 2.21115 0.792371 2.19297
2824 1 1 2.9704 1.74958 0.963465 5.67363
7604 1 1 7.03199 1.47581 0.0689268 0.441078
7653 1 1 4.39621 2.31104 36.9146 4.09808
1266 1 1 6.20847 0.918505 2.81033 0.529448
175 1 1 5.70325 0.785133 1.16665 0.975813
7032 1 1 10.1429 3.61971 37.3592 1.85681
437 1 1 8.57895 18.1982 1.07892 1.50838
1563 1 1 12.5643 2.78665 1.2476 0.717242
7431 1 1 11.9635 2.38282 2.15928 1.21509
1806 1 1 12.7967 3.14353 36.8987 0.843624
350 1 1 13.5496 2.61376 36.1121 1.03856
828 1 1 13.4083 3.79032 36.1785 2.78627
636 1 1 14.07 1.38252 2.66195 0.219055
1183 1 1 16.8453 3.72935 0.611074 1.17636
877 1 1 15.8198 1.68838 1.44941 0.688326
6845 1 1 16.7473 2.69106 1.21692 3.84322
2202 1 1 2.0827 1.93497 0.381833 0.0864784
791 1 1 3.40429 3.06237 3.94004 2.15618
6006 1 1 4.73709 1.3931 1.08641 0.87736
314 1 1 2.53781 6.47166 37.6079 1.61841
406 1 1 5.15041 3.15898 36.7728 2.40074
367 1 1 2.80913 0.738874 36.3524 0.604602
6777 1 1 5.05491 3.32337 0.276197 0.699061
324 1 1 4.82655 2.54079 1.62255 2.31673
454 1 1 9.79297 2.95427 36.5856 2.86199
1085 1 1 6.98804 2.00829 1.04912 0.679794
5462 1 1 6.55706 4.01248 1.61822 0.209937
2244 1 1 10.7863 17.6841 37.0257 0.765689
285 1 1 10.0576 2.7572 1.53811 1.20268
7115 1 1 11.9403 5.85513 35.7235 1.52165
7155 1 1 14.2992 4.9456 37.4134 1.50127
430 1 1 14.1508 3.1631 0.956129 2.39903
7392 1 1 15.4445 2.17808 36.697 0.883782
7440 1 1 18.5935 4.36426 2.66149 2.13721
7660 1 1 2.00811 5.375 1.07656 2.2135
190 1 1 1.87548 5.03126 0.227091 0.404707
7346 1 1 1.72723 4.30581 1.53248 0.435389
1562 1 1 2.07464 6.86532 0.887383 0.208897
733 1 1 4.30151 5.11689 0.295112 0.695994
7260 1 1 3.27933 4.59796 37.4752 0.0842997
7564 1 1 9.13221 4.09106 0.257858 1.97618
7450 1 1 10.5087 5.9907 1.60199 5.33569
973 1 1 11.6684 3.8092 3.25509 1.46343
5741 1 1 11.4415 5.15616 0.485724 2.82846
6949 1 1 12.9504 4.01212 1.86683 1.58881
6997 1 1 14.2553 3.38038 3.01683 6.67468
7544 1 1 16.8124 5.17856 34.8253 0.598983
7273 1 1 17.5854 4.1658 0.245753 1.19944
552 1 1 16.1359 4.49133 0.97802 0.20267
137 1 1 18.1531 5.42694 1.51313 0.305711
1020 1 1 0.67603 4.92064 0.311799 2.38075
7594 1 1 17.38 4.62886 1.15095 0.902862
1037 1 1 1.75152 7.68499 2.03032 1.57781
7965 1 1 0.814133 6.47368 0.863151 0.998547
1714 1 1 2.13875 5.86606 36.1084 3.34988
762 1 1 1.41856 8.95864 0.619443 0.513614
135 1 1 5.1446 4.52494 0.0804585 0.873565
7703 1 1 5.96572 5.2441 0.344803 1.21514
6441 1 1 8.70214 8.14654 2.48941 0.417385
1296 1 1 9.26342 4.8648 36.9139 1.12317
187 1 1 8.39274 5.71191 1.72353 0.659583
997 1 1 8.51472 6.58468 2.04559 1.63298
5812 1 1 12.0118 6.02334 1.02802 1.9859
1784 1 1 11.9944 4.1894 0.181465 1.04289
2197 1 1 14.8468 7.21194 2.00288 1.43511
469 1 1 15.1427 6.9089 0.793608 0.280025
6476 1 1 13.0425 6.45522 1.29956 2.47616
7318 1 1 17.0863 5.43015 0.58978 0.546473
6561 1 1 16.4755 5.92039 1.22614 2.85102
7844 1 1 0.448963 5.87065 37.4427 0.218989
205 1 1 2.10685 8.93124 1.79555 1.488
7570 1 1 0.183009 7.69059 0.614642 0.406619
357 1 1 2.8317 8.27328 1.78007 0.315307
750 1 1 3.13337 9.18699 3.10766 1.41733
922 1 1 5.93043 8.40793 1.18664 1.90449
174 1 1 5.10707 6.98602 2.90464 4.66844
7738 1 1 6.94941 8.33248 0.557818 1.08716
1681 1 1 9.45298 7.79841 0.292961 0.802187
1001 1 1 8.91249 8.66474 1.30526 1.33384
7573 1 1 9.01832 6.44491 0.252697 1.31434
6907 1 1 8.85498 7.44232 1.22094 0.895751
7913 1 1 10.2508 7.65331 0.906511 2.4648
7548 1 1 12.7143 7.50135 1.30739 1.46553
79 1 1 15.4394 7.39457 37.347 0.348469
7411 1 1 13.5784 6.82882 36.036 0.110966
669 1 1 13.2819 6.25766 2.43755 2.24644
6959 1 1 15.7725 8.68502 37.0583 1.50176
7424 1 1 16.3873 6.81205 36.731 2.18652
1401 1 1 17.3491 6.82571 0.50948 5.47914
875 1 1 16.2622 6.31105 0.214381 1.18794
6828 1 1 0.550695 6.94022 1.95942 1.11746
1596 1 1 1.70262 9.34 3.13814 0.355398
6343 1 1 2.64513 8.8992 36.6081 1.55203
6767 1 1 3.34408 9.42589 1.49572 0.0586705
7846 1 1 2.11552 10.7399 36.7847 0.657139
86 1 1 3.77507 9.51506 37.2265 1.18929
7144 1 1 4.53729 7.15899 0.172498 0.998278
7513 1 1 5.62859 7.48237 2.12643 0.548848
6380 1 1 7.77309 9.69478 37.583 0.118662
6235 1 1 8.33336 8.7386 3.4516 1.47559
7002 1 1 8.08098 9.15502 36.5108 2.18284
7643 1 1 8.63848 10.0075 0.483747 2.51336
7019 1 1 9.27006 9.04206 0.228252 1.39345
7943 1 1 11.8257 7.16821 1.58987 3.25684
543 1 1 11.0413 6.57395 1.06114 1.09478
5838 1 1 15.7069 10.9272 37.3598 2.42497
1120 1 1 13.4822 8.75578 1.38639 0.582629
600 1 1 15.9027 8.7072 35.824 0.95136
2072 1 1 17.5518 10.3495 1.12499 1.00385
5857 1 1 18.174 8.05074 1.10265 0.650556
736 1 1 18.2646 7.80744 37.5457 0.677787
7397 1 1 1.17816 9.96598 0.568112 1.42765
7800 1 1 17.8514 5.96471 36.7779 0.429759
7581 1 1 18.8181 8.88135 0.787898 2.00307
6599 1 1 0.963798 10.0477 2.64022 1.41659
7567 1 1 1.4974 13.2553 37.306 0.421668
439 1 1 4.02601 10.7064 2.52639 3.0553
1172 1 1 5.24058 11.995 0.521406 0.683543
191 1 1 5.78506 11.5656 1.91039 1.35601
7065 1 1 7.43848 10.2863 0.879053 0.671861
236 1 1 5.14246 10.2103 34.3742 1.82402
6933 1 1 6.10761 10.0092 36.2481 0.714853
238 1 1 6.93137 11.1659 1.2483 1.23142
574 1 1 8.88003 9.76622 37.0676 1.27628
6631 1 1 9.58877 11.0337 1.23705 2.7104
7949 1 1 8.21877 10.6486 37.2762 1.35969
3406 1 1 9.79155 10.6416 37.5149 0.558799
7834 1 1 13.955 12.7919 1.19511 0.430333
1584 1 1 11.766 10.1635 37.4725 0.112292
932 1 1 11.4235 9.63821 0.589499 1.24031
627 1 1 16.5545 9.8887 0.491004 2.42459
1438 1 1 17.9419 9.26452 1.37255 3.19591
6752 1 1 17.8246 8.69253 0.097829 0.868183
991 1 1 1.98396 12.2803 0.708333 1.73311
7555 1 1 0.0919332 9.79328 1.63572 1.22122
1793 1 1 18.4658 13.0492 37.3389 2.55349
962 1 1 2.48378 12.7972 1.7012 0.303722
7060 1 1 2.07322 10.1718 0.769596 3.23072
340 1 1 6.12096 12.1516 37.2657 0.974584
662 1 1 3.50292 12.1809 1.31112 1.92725
704 1 1 6.08593 14.7298 1.43618 1.8234
7351 1 1 8.34486 12.7967 0.263366 2.17152
2234 1 1 8.69983 11.9746 35.5287 2.69499
6693 1 1 10.8713 12.4935 0.371855 3.08766
7749 1 1 9.07684 11.369 0.205316 1.77164
2320 1 1 8.92226 11.9417 1.11201 3.86899
6723 1 1 13.3328 10.8517 0.664719 2.21852
7497 1 1 14.0995 11.1049 37.5407 0.242834
1997 1 1 18.4209 12.4226 0.61292 1.56249
818 1 1 17.8341 11.6202 2.19297 0.925852
1399 1 1 18.3776 9.8979 0.450298 1.47953
924 1 1 17.9822 15.4349 1.26106 5.35572
6411 1 1 0.835899 14.1871 1.34868 3.41093
6464 1 1 1.7648 13.6009 0.61615 1.08857
7248 1 1 3.05212 14.6542 1.18434 1.52846
7404 1 1 3.12001 13.8735 3.26415 1.92048
7836 1 1 3.12666 13.3089 0.382396 1.40135
7457 1 1 5.55787 12.9561 37.6203 3.53805
7174 1 1 5.13781 15.1481 0.664541 1.50211
163 1 1 7.96898 13.7773 37.6324 0.741529
970 1 1 6.57786 15.7535 0.923171 3.22021
678 1 1 9.82132 13.855 0.651571 1.52905
64 1 1 8.48859 14.129 0.942819 3.64311
6399 1 1 11.0837 14.4944 0.68507 0.409811
386 1 1 10.2606 13.6679 36.4641 0.641968
6873 1 1 11.1451 13.4872 0.774059 1.32144
830 1 1 10.5402 13.0331 1.80489 0.77199
2106 1 1 12.2924 14.1638 0.844114 3.09612
375 1 1 13.9796 13.2147 0.122899 1.35111
209 1 1 14.4924 12.2898 34.7648 3.70202
5900 1 1 13.1802 13.6655 1.58405 2.20472
1749 1 1 15.7509 14.0946 1.25237 0.210359
711 1 1 16.1943 13.2989 0.872532 1.94877
7138 1 1 14.8835 12.7516 35.8267 1.73624
346 1 1 0.84824 12.0893 0.984676 1.5295
918 1 1 18.6011 13.1266 1.28098 2.21136
1136 1 1 0.346988 16.0272 37.1863 0.663724
6637 1 1 2.29585 15.7665 1.1104 1.18397
7957 1 1 4.11707 13.3039 2.34533 2.15529
642 1 1 4.65349 16.7979 0.354908 3.29576
639 1 1 4.14995 14.2819 1.32832 0.341313
569 1 1 6.5573 14.0314 0.383111 0.584887
6673 1 1 7.97744 15.1478 36.995 0.435655
1729 1 1 7.20161 14.5953 1.68558 2.3781
504 1 1 6.75308 15.0387 2.63078 0.0902638
7736 1 1 10.5887 14.2451 1.97144 0.388702
239 1 1 11.847 12.058 0.651808 0.0912359
472 1 1 12.9301 15.7861 2.15492 0.728059
2373 1 1 12.523 12.7924 0.401603 0.253836
1186 1 1 13.2659 17.5161 36.9789 0.724293
7011 1 1 16.6916 16.8575 0.541143 1.35582
7338 1 1 15.5513 15.9716 0.396975 0.409432
296 1 1 16.978 15.8429 0.369574 3.48677
7977 1 1 1.42587 17.9477 36.7988 0.146849
7863 1 1 0.880378 17.0523 1.96775 1.32497
668 1 1 1.3465 16.298 1.00847 2.57203
1634 1 1 1.36322 18.125 1.37652 0.818344
7097 1 1 1.92571 17.0468 36.7517 1.0075
332 1 1 4.13964 15.9008 1.076 1.30923
7300 1 1 4.73402 17.8123 37.3146 2.93734
7297 1 1 7.53141 15.5299 0.8512 0.707141
287 1 1 6.1169 16.6062 0.718555 0.452433
414 1 1 8.45534 17.3824 36.789 0.484043
5509 1 1 10.2252 17.043 36.679 0.318151
1196 1 1 10.6117 16.4523 35.7726 2.48711
6228 1 1 11.391 16.9696 36.2887 1.14211
7568 1 1 13.9425 17.4086 36.2668 3.8768
809 1 1 12.8111 16.2567 0.697337 0.272095
653 1 1 13.2047 17.2602 0.436895 1.05494
6982 1 1 14.7732 17.4237 37.1238 0.8648
2506 1 1 15.1557 17.805 0.823749 1.90401
579 1 1 17.1965 14.6809 0.0451592 2.2973
273 1 1 15.1008 16.2672 2.31648 6.10333
1216 1 1 17.3986 15.87 2.13411 1.80638
328 1 1 1.03572 17.8368 0.182699 2.37746
647 1 1 2.95333 0.827167 2.03545 3.40898
1469 1 1 3.29755 15.6392 1.38216 1.19655
829 1 1 2.07094 0.0911319 0.841451 2.04325
1573 1 1 6.0925 2.04628 0.180613 2.6935
758 1 1 4.59315 18.5982 2.32251 2.34176
6079 1 1 6.3285 18.054 1.50178 0.207801
7613 1 1 6.6075 17.1585 2.41614 1.64418
6855 1 1 6.72267 0.730221 1.03954 0.996915
895 1 1 7.1733 18.3707 0.870754 1.46644
7452 1 1 10.1329 17.0495 1.44196 0.267554
7753 1 1 9.56101 17.9627 1.72776 1.49679
281 1 1 13.1335 18.0805 2.13095 2.78342
500 1 1 12.4215 17.6359 1.62249 5.82279
1413 1 1 14.2366 17.3298 0.73364 3.21995
7529 1 1 17.5682 0.474728 0.862287 3.48112
1999 1 1 17.9639 15.9285 36.1485 0.728831
1713 1 1 1.40368 17.7634 2.68225 1.72864
643 1 1 4.0451 0.130361 1.28855 1.11809
1509 1 1 2.47538 17.6731 0.790652 1.26987
2026 1 1 7.34546 15.741 1.91223 3.68508
1365 1 1 2.58774 2.67856 1.5272 1.53451
104 1 1 3.82679 0.809366 2.62859 0.353224
1750 1 1 5.70478 3.74586 2.98924 0.381207
1348 1 1 4.06163 2.16539 2.53386 0.302354
6581 1 1 7.7998 0.58132 0.627225 0.882088
6040 1 1 9.35333 2.42765 2.73254 1.90323
1140 1 1 12.4799 0.280064 2.38153 1.90661
7028 1 1 11.6027 2.16759 3.15203 0.681457
7340 1 1 13.0663 18.682 3.18013 0.498469
7185 1 1 15.0685 18.382 1.91519 2.69352
1339 1 1 16.0368 0.132112 2.1301 2.92793
1973 1 1 16.6477 17.7293 1.22311 0.0541021
1041 1 1 15.4916 0.175801 37.5805 1.19921
1511 1 1 17.4641 1.28316 2.64183 1.78129
1607 1 1 0.578917 2.34274 2.74938 0.707794
3242 1 1 0.611747 1.09697 3.79075 0.267102
508 1 1 17.6388 0.693762 37.2374 2.3225
7679 1 1 0.499063 18.4153 0.989793 0.925564
1198 1 1 2.30613 0.816532 2.93263 0.860044
7718 1 1 1.68646 2.86254 3.7122 8.20557
7773 1 1 3.62638 2.57709 1.61687 1.02374
547 1 1 5.6833 1.76629 1.59539 0.550351
7751 1 1 7.22658 0.80469 1.85899 0.300316
6866 1 1 6.45168 4.0364 4.07247 2.65817
108 1 1 8.71714 2.3306 3.67316 0.519302
6363 1 1 7.8721 3.12582 1.47556 0.685756
1661 1 1 11.4032 1.65028 1.46431 0.831793
6659 1 1 12.7618 2.98779 2.5256 3.6168
6241 1 1 10.0567 4.67147 3.29125 0.549275
1007 1 1 12.0626 0.488409 0.89867 1.11924
3932 1 1 15.7513 4.44294 2.5341 1.12428
1928 1 1 16.4884 0.361437 3.28377 0.0465877
3225 1 1 13.8087 0.845941 3.50547 0.565911
1591 1 1 16.022 3.27418 3.48596 1.14009
1672 1 1 18.8269 0.731901 0.970273 6.53046
31 1 1 2.65898 3.66011 1.70945 0.409079
2558 1 1 0.277561 4.32993 4.09782 1.28583
1045 1 1 2.11248 2.83038 37.5208 1.24344
6026 1 1 3.51199 4.28574 4.34564 0.177252
7785 1 1 3.92435 3.48971 3.27038 2.42237
6083 1 1 5.85738 2.98557 1.38684 1.32462
6605 1 1 4.68988 1.46201 2.7423 8.33027
7625 1 1 7.40929 5.1502 3.42005 1.76022
593 1 1 7.81781 3.00756 2.78002 1.75762
1381 1 1 9.15115 2.9541 0.241933 0.838772
354 1 1 9.53899 3.68297 1.14125 3.99166
7094 1 1 12.2446 6.42024 2.25153 2.12317
7719 1 1 9.65856 1.68823 1.8961 3.62866
726 1 1 13.5343 2.38693 3.04017 0.689771
1270 1 1 14.9726 2.36432 2.30451 0.899673
3071 1 1 16.062 3.41132 2.4075 0.460317
874 1 1 0.228808 5.65001 2.52192 2.79006
7697 1 1 0.597827 3.44937 3.29401 0.983939
6423 1 1 17.8479 3.47138 1.67197 2.26531
982 1 1 1.96977 4.41457 2.54389 3.2256
602 1 1 2.63154 6.20294 2.31572 1.83206
1310 1 1 2.63117 5.12998 2.03461 2.02195
1717 1 1 3.30256 4.39933 1.01532 0.863592
1279 1 1 4.40299 3.73693 1.41178 4.69636
7879 1 1 3.67318 5.67219 3.91468 1.61948
7612 1 1 5.42911 4.40745 4.22621 2.30975
1273 1 1 5.29309 4.54786 2.57379 3.21305
6424 1 1 5.35993 3.73564 1.88237 0.441025
1237 1 1 10.2945 4.27257 0.669532 0.0987112
604 1 1 9.90313 3.79844 2.47047 0.438522
7466 1 1 12.8452 4.59789 4.04388 1.4335
742 1 1 15.8621 6.643 3.50593 2.54753
7468 1 1 16.896 3.91473 1.91879 1.26793
126 1 1 15.3826 2.77622 1.16819 1.42295
1539 1 1 15.2656 5.08369 0.724847 1.92624
1648 1 1 15.5424 5.76853 2.39353 0.430558
7633 1 1 17.3837 5.91034 3.50617 0.618854
6640 1 1 0.0114566 5.31651 3.53534 0.30925
1715 1 1 0.69577 5.81511 1.66759 0.310391
966 1 1 1.13255 8.59437 2.69675 2.03653
7944 1 1 2.70063 7.08993 1.84084 1.51945
6987 1 1 2.80437 6.15996 1.08426 1.66582
2559 1 1 4.48756 8.31963 2.85308 0.360705
6815 1 1 3.67667 6.53953 -0.00816656 1.80993
615 1 1 3.54854 6.60362 1.75671 2.33783
2608 1 1 7.46609 6.3663 2.14316 0.63876
7472 1 1 6.42305 4.92249 2.25744 0.237705
7482 1 1 10.3358 5.72003 3.20673 0.43594
1224 1 1 12.2685 6.52077 3.31404 0.59861
1790 1 1 12.975 5.95545 3.81529 2.30859
277 1 1 9.34005 5.14353 2.59016 0.514719
6497 1 1 7.87059 7.78925 1.73466 0.211986
6044 1 1 13.9993 4.22711 2.22366 1.34732
1537 1 1 14.0163 5.68553 2.95001 0.431765
486 1 1 9.79153 6.80651 1.60296 1.54198
374 1 1 15.1199 3.46609 1.8859 1.93336
1377 1 1 14.5059 6.14685 2.0267 0.531953
223 1 1 13.4359 7.76204 1.93725 0.645881
651 1 1 15.8296 6.78502 1.63772 2.5535
235 1 1 16.738 6.09186 2.7321 0.487949
573 1 1 0.104939 7.37501 2.91449 0.794741
7358 1 1 2.61947 8.27934 2.91451 0.535406
5817 1 1 3.90652 8.72575 3.84423 1.27104
158 1 1 5.08503 8.76891 3.60852 3.90314
842 1 1 4.60321 7.90764 3.94936 2.6723
1751 1 1 7.0053 7.39692 1.74696 1.727
6253 1 1 9.82363 6.60444 3.23827 1.63464
8000 1 1 6.82453 3.10605 2.34445 0.646512
1069 1 1 6.66261 9.74919 1.43152 3.71369
1217 1 1 7.96075 9.24099 1.19309 1.24835
2054 1 1 11.0078 9.13988 2.1847 0.588952
7644 1 1 9.43797 6.0612 2.20435 1.50122
21 1 1 11.1789 6.75549 2.29086 3.18491
675 1 1 13.326 6.92792 3.67585 0.546124
1193 1 1 15.5257 7.91405 0.978242 0.313061
498 1 1 14.4785 8.87801 3.45142 0.629619
140 1 1 14.4095 8.86953 1.95666 1.14944
550 1 1 16.0897 8.71439 0.576141 1.63635
2587 1 1 16.7588 9.47937 36.5056 1.22122
622 1 1 15.8788 7.7843 1.9929 0.310273
645 1 1 18.1489 6.31031 1.06927 1.30968
6675 1 1 17.5231 6.76529 2.55804 1.22909
7966 1 1 18.8106 9.75082 3.12402 0.624989
1290 1 1 2.52926 10.1324 1.9348 2.80312
7803 1 1 3.97132 8.48424 1.69382 1.29815
7731 1 1 4.97496 8.50509 1.90917 5.49324
7841 1 1 3.27908 11.2343 1.71324 1.48655
6578 1 1 6.42107 8.7821 2.14922 0.990592
1264 1 1 8.31513 8.79619 0.122048 1.51932
6665 1 1 4.3541 9.53075 2.0574 1.89199
7721 1 1 7.92514 9.69153 2.25611 0.646647
568 1 1 9.78296 9.55076 3.46318 3.79435
610 1 1 7.99366 7.69955 3.55991 3.04591
955 1 1 10.4915 8.45271 3.05681 2.47281
738 1 1 14.1403 9.92603 2.74016 1.50653
6686 1 1 14.1174 9.40406 0.0345905 0.829519
7634 1 1 12.2344 11.1777 3.78587 1.68937
7795 1 1 17.8622 11.0831 0.448114 1.73427
38 1 1 16.7995 9.90715 1.9395 0.432521
423 1 1 16.7823 8.17523 2.77255 0.839961
7432 1 1 15.9591 8.80858 2.66756 0.19772
1360 1 1 -0.0214762 8.7306 2.69962 0.874312
3472 1 1 0.742335 11.6243 3.11923 2.72368
1677 1 1 0.4555 8.22401 1.58049 1.36559
663 1 1 17.8525 9.14583 2.41319 0.0909741
7851 1 1 1.84571 12.6788 2.81711 0.775473
2638 1 1 1.60184 11.5847 3.66298 0.040851
1917 1 1 2.75283 12.2604 4.78159 1.64359
1318 1 1 3.37722 12.8351 2.96116 1.13739
452 1 1 4.30504 11.2291 3.42037 0.742987
2357 1 1 5.35548 7.56624 0.972626 2.88075
1863 1 1 7.14197 13.1804 0.239313 1.7319
630 1 1 8.02649 11.6849 1.74653 0.948661
1968 1 1 8.93085 10.4208 3.00999 3.12511
1504 1 1 11.9609 9.22868 3.06641 1.52457
2150 1 1 12.6914 8.14221 2.57586 2.89098
708 1 1 15.6988 10.6491 0.720963 0.596129
201 1 1 13.3504 10.9937 2.71233 1.30731
969 1 1 17.1341 10.8142 2.35233 0.726133
1143 1 1 18.4005 11.3797 1.38013 0.824712
7128 1 1 0.835267 13.8319 4.45814 1.57111
300 1 1 1.80253 11.3096 1.42585 3.59076
7729 1 1 17.992 15.1545 3.22774 1.67656
1727 1 1 4.73367 13.359 3.52827 4.54734
133 1 1 4.86602 11.8381 2.62356 0.886006
1528 1 1 7.07691 12.3923 2.75392 1.26535
945 1 1 6.33733 12.6805 1.48667 1.76605
1210 1 1 6.3807 10.0395 2.36885 0.444823
6584 1 1 7.71764 11.9492 3.47996 2.28166
342 1 1 8.84479 13.3063 2.00095 1.49824
1385 1 1 11.4136 10.6147 1.69101 0.218345
433 1 1 12.2283 10.8035 1.00132 0.147265
6939 1 1 10.8524 11.2605 0.969014 1.0643
778 1 1 10.4547 11.7836 1.98403 1.08099
6567 1 1 14.805 12.5174 4.00699 0.427356
7893 1 1 12.5712 11.9236 1.72837 3.19126
596 1 1 15.9897 12.3297 3.08239 1.05195
1189 1 1 16.4706 12.4758 1.44681 3.15217
7089 1 1 16.2939 13.0395 2.34604 2.72624
1836 1 1 16.9361 11.2856 1.38671 1.01592
1280 1 1 18.6637 10.9474 2.60887 0.91872
259 1 1 0.745746 13.4527 1.8498 0.464846
7047 1 1 2.51041 13.8826 37.2436 0.588047
234 1 1 2.82519 13.6756 2.01995 0.744042
1448 1 1 0.0548949 14.343 2.5625 1.54396
7961 1 1 5.91412 13.6648 1.07004 0.22771
6379 1 1 5.54706 13.8011 1.98338 3.05587
299 1 1 4.9045 13.5777 0.741926 0.826043
481 1 1 6.14632 13.8839 2.8763 1.00469
7678 1 1 8.02117 12.7583 2.23418 0.549409
7035 1 1 8.81696 14.3907 3.38329 4.0939
769 1 1 10.5724 12.8956 3.94104 3.00414
7266 1 1 11.6486 11.1396 2.79527 3.4625
7856 1 1 12.3312 12.9345 1.48994 0.486335
338 1 1 12.839 14.8486 1.65018 0.730231
1617 1 1 13.6286 11.9283 1.39152 1.16551
1017 1 1 15.4087 13.0183 1.78514 0.89286
629 1 1 16.0279 14.8388 2.00521 2.11968
7999 1 1 17.5061 13.4388 3.44294 0.624403
255 1 1 17.3386 13.8307 0.834303 0.877473
2974 1 1 16.7234 14.1564 2.69739 3.661
6833 1 1 17.8007 12.7566 1.70426 2.78946
1042 1 1 0.0855278 15.2803 0.405988 0.913136
7772 1 1 1.31466 15.4346 2.81833 2.38414
1340 1 1 1.33548 16.3019 3.46923 0.459617
6459 1 1 18.5758 17.3797 2.65526 1.08889
1676 1 1 1.19382 15.0608 1.83805 0.501595
4804 1 1 1.81071 14.0168 2.45568 0.899641
1651 1 1 5.1122 14.6297 2.65864 1.01645
7405 1 1 8.14328 15.866 2.82895 5.71922
1416 1 1 9.12183 15.6062 37.0195 0.523792
6321 1 1 9.10883 17.1407 2.30058 0.427614
815 1 1 7.7118 14.1412 3.20869 1.95294
2347 1 1 11.6488 12.9606 2.39291 0.643612
2046 1 1 12.0544 14.2368 2.24133 1.22106
7950 1 1 14.4888 15.8838 3.78011 0.447831
1077 1 1 13.4121 15.5096 3.10523 2.1898
89 1 1 10.8039 15.5877 1.19939 3.05774
7444 1 1 13.356 14.4929 4.53187 0.743226
1269 1 1 15.5147 16.527 1.2692 1.8248
1110 1 1 13.7693 13.7279 3.08781 3.03556
336 1 1 14.3726 15.5762 2.71832 0.668425
1614 1 1 13.5678 14.5968 2.43755 2.76043
1170 1 1 16.3523 14.8637 0.718967 1.29386
1367 1 1 16.1584 15.7869 1.39612 0.994866
1984 1 1 18.5871 15.3904 2.04731 0.390771
1652 1 1 18.6361 16.8141 3.62228 0.750464
5605 1 1 1.17314 16.7327 4.58084 0.980142
157 1 1 2.32153 15.3654 5.1842 3.75612
549 1 1 18.7774 16.783 1.37319 1.78866
1128 1 1 4.24923 14.1407 4.43544 0.709869
3499 1 1 2.89221 17.0541 37.1627 4.12189
6280 1 1 4.87487 15.0827 1.82666 2.26036
687 1 1 8.42748 14.1684 2.39555 0.0370375
7303 1 1 5.78403 17.2473 3.53429 5.22791
6688 1 1 7.03972 16.8106 1.46607 0.431077
898 1 1 10.2405 14.456 2.85592 0.192701
1453 1 1 9.63346 16.6331 0.254664 0.395583
6582 1 1 9.90045 17.1567 3.36283 1.13525
343 1 1 13.8969 16.3968 1.52455 1.12896
990 1 1 14.1013 16.7191 2.48533 3.90376
1139 1 1 13.8405 15.4496 1.74041 4.61718
1604 1 1 15.0481 15.2248 4.33709 7.62942
1070 1 1 15.9485 15.7621 3.55993 1.18836
7826 1 1 18.1977 18.0432 1.18787 5.23794
7847 1 1 17.0303 16.8759 1.57463 0.737343
7951 1 1 4.62467 0.396339 3.21299 5.25978
18 1 1 18.4211 0.0402061 1.9934 1.22067
7454 1 1 2.21325 16.016 2.18515 2.10026
531 1 1 4.93608 17.596 2.62936 2.28458
1147 1 1 5.57425 18.5758 3.25997 1.59666
1466 1 1 8.77312 17.4337 3.29244 0.712741
490 1 1 7.69907 2.16787 1.83837 3.35039
32 1 1 8.19541 17.4496 2.0147 0.447548
62 1 1 9.59351 15.4518 3.62508 4.96037
961 1 1 10.818 18.0972 2.39388 1.42329
7821 1 1 9.66572 17.7116 4.225 5.71635
55 1 1 13.0248 16.7661 2.815 2.26216
1616 1 1 10.5561 17.8702 3.7779 0.532118
505 1 1 10.8353 16.6616 0.231359 0.524565
2348 1 1 14.9825 17.3889 2.03818 0.858819
409 1 1 13.0758 18.4008 0.453054 0.291672
6824 1 1 17.3866 18.4803 4.56553 0.560564
670 1 1 17.7312 18.4816 2.79167 2.01503
6430 1 1 18.4056 18.2652 0.146947 1.54545
7434 1 1 17.5283 2.14732 4.1772 4.66942
910 1 1 18.3331 2.68728 4.25659 1.50508
7947 1 1 1.44087 1.76832 3.15569 0.579111
7451 1 1 18.2545 0.513713 2.92174 1.20927
1902 1 1 2.44933 1.85096 3.27963 0.811885
2365 1 1 6.1422 18.6086 2.43097 1.57565
656 1 1 5.93404 2.28803 4.20763 2.60171
902 1 1 4.73768 2.51241 4.88393 0.812797
7818 1 1 10.8826 18.4068 4.61662 2.75163
1781 1 1 9.5585 18.3046 2.78036 1.25004
676 1 1 9.01695 14.8982 2.50818 2.55022
2204 1 1 11.5449 0.628556 2.11778 1.13089
2208 1 1 11.4425 18.6322 5.88686 2.10556
164 1 1 11.0294 1.76435 4.22977 0.385245
147 1 1 12.3157 17.5563 3.54783 0.222948
1473 1 1 14.0965 17.8813 2.43754 0.424632
7669 1 1 14.5427 0.487111 2.14577 0.351605
807 1 1 16.869 0.910128 4.81561 2.97437
7830 1 1 16.6611 0.692468 1.26142 2.24875
881 1 1 17.9711 0.851338 4.61707 4.87734
2134 1 1 18.2922 1.2061 3.75109 2.19133
1909 1 1 1.61564 0.977373 4.43927 1.1045
2066 1 1 0.708561 2.29185 3.7983 0.066102
7188 1 1 2.26694 3.95226 4.75991 0.25248
1654 1 1 2.43374 1.80552 2.18857 0.557969
686 1 1 2.5229 4.67653 3.95387 0.869214
96 1 1 3.72397 3.27745 5.3431 2.72969
1322 1 1 3.76283 1.54779 1.85801 0.788537
148 1 1 2.65686 2.82632 6.08337 5.90819
729 1 1 3.22158 2.82439 2.58322 0.532767
6922 1 1 9.27003 0.799103 4.04172 3.12631
1543 1 1 8.35193 0.709041 3.44208 2.19324
7934 1 1 5.81161 1.92796 2.67528 1.0071
544 1 1 9.28589 0.849559 0.87718 4.25437
6942 1 1 8.12989 0.994607 4.43943 0.99031
61 1 1 9.25411 1.13795 2.63058 1.06937
1291 1 1 11.3609 0.816501 5.37368 2.03186
822 1 1 13.5069 17.525 3.30281 3.28519
479 1 1 11.9946 2.94263 5.13634 6.7558
1239 1 1 14.3312 2.88108 3.85206 0.0392391
149 1 1 17.5112 2.51434 3.17456 1.1404
772 1 1 17.1305 1.10434 3.6774 2.39243
1826 1 1 13.1268 2.91045 4.9495 1.20095
519 1 1 16.2894 2.33262 3.05257 1.95101
914 1 1 16.9859 4.8281 3.76097 2.60655
1354 1 1 17.1435 2.70552 2.29549 0.741085
965 1 1 17.1527 2.64199 4.95427 0.644628
7887 1 1 0.766185 3.92591 0.665493 0.430473
845 1 1 0.693161 3.39899 4.59067 1.88367
1738 1 1 1.99752 2.32643 4.62857 0.813818
109 1 1 2.28535 7.40408 3.8392 0.900116
692 1 1 4.55922 4.12477 5.44023 3.43451
7366 1 1 4.22671 3.39365 4.37326 2.25017
7215 1 1 4.79402 3.15727 2.78728 1.8632
7861 1 1 7.14793 1.58587 4.76242 1.31627
125 1 1 7.46141 4.08036 3.63797 0.724853
5799 1 1 10.3701 2.06886 2.56978 1.11676
1302 1 1 9.55205 4.69752 4.25093 0.480723
2191 1 1 12.5967 3.50295 3.87788 1.55018
7322 1 1 11.105 2.75611 3.8592 0.643845
7532 1 1 13.2564 2.32902 6.15988 0.685801
98 1 1 12.6207 3.91578 5.13977 3.94251
1450 1 1 14.7251 3.08368 4.93808 0.371817
7758 1 1 16.2119 2.90734 4.79693 0.82043
588 1 1 14.7218 3.80373 3.90764 0.142738
2793 1 1 15.7795 4.60297 3.78718 0.120213
1336 1 1 16.0837 3.98554 4.49716 0.487784
7595 1 1 18.4207 2.8484 2.89815 0.748576
7202 1 1 16.7562 4.06668 2.94057 2.32689
115 1 1 17.1134 3.42091 3.83496 3.21186
774 1 1 0.767034 6.63893 5.11866 1.6734
7791 1 1 1.55879 5.6312 2.68627 0.587773
2033 1 1 2.44652 5.66064 4.42709 0.416997
2044 1 1 3.04203 4.36601 3.00195 0.324772
799 1 1 3.62284 5.82926 5.09499 2.16066
489 1 1 3.58971 4.2932 2.05968 2.57836
188 1 1 6.17191 6.47512 1.94432 0.162477
580 1 1 7.68112 4.77353 4.47667 0.334703
7251 1 1 7.73261 5.44008 5.68957 0.494359
1850 1 1 8.66936 4.67875 3.65753 1.41737
6566 1 1 9.61382 3.294 4.41733 1.41997
5747 1 1 8.2843 3.9095 2.86336 0.813317
6996 1 1 9.27693 3.24449 3.28598 1.46985
1025 1 1 10.5419 5.39277 4.68613 2.57119
1585 1 1 11.1563 5.18243 2.50883 0.243182
6470 1 1 13.9702 4.62007 3.31092 1.84472
7782 1 1 13.8444 6.30233 4.4715 0.408738
2139 1 1 14.9226 5.24913 3.41711 0.517738
1422 1 1 14.7592 6.23514 3.56444 0.3561
1213 1 1 15.3956 4.98092 4.83563 1.76671
7579 1 1 14.4957 7.1465 2.9316 0.553836
6719 1 1 16.4288 5.16126 2.83824 0.597215
7659 1 1 17.8847 7.01207 4.92823 0.334152
383 1 1 0.926221 4.72301 2.69918 1.66856
72 1 1 2.29837 7.19565 2.80919 1.81942
913 1 1 0.408199 6.96959 4.01285 5.11001
608 1 1 3.78183 6.04841 2.94573 1.86577
6159 1 1 0.456727 8.01417 4.80388 0.94347
509 1 1 4.30635 5.03058 2.19013 2.63825
2917 1 1 4.11622 7.09904 2.87266 0.55349
7601 1 1 3.01248 6.7993 3.69287 0.599847
3 1 1 2.61193 7.0219 4.76129 4.07521
1002 1 1 4.37234 6.38519 4.3226 0.214016
217 1 1 6.65624 7.07886 5.3175 1.17938
6477 1 1 7.27651 7.77267 2.71006 1.06745
985 1 1 5.69256 6.90386 4.68765 1.35085
7387 1 1 9.29066 5.70449 4.04951 0.542798
7683 1 1 8.37667 5.82416 3.03204 0.495649
7685 1 1 7.82326 6.04535 4.04812 2.31188
2855 1 1 9.6167 8.02508 2.73922 3.0126
6619 1 1 12.5225 9.37397 1.2751 1.24154
7850 1 1 9.71646 6.6501 6.41154 1.65527
7725 1 1 12.7328 5.74925 5.23871 3.82091
1203 1 1 16.631 7.09574 3.00173 1.70837
102 1 1 18.2414 6.80832 3.48345 2.89913
538 1 1 0.511641 6.31817 3.22945 0.75964
1757 1 1 17.7925 7.91125 2.67263 1.46381
802 1 1 2.47205 8.80363 4.05829 1.17857
926 1 1 1.22492 7.16801 2.80185 1.64164
1275 1 1 2.48123 8.68442 5.06493 2.93208
7326 1 1 3.91378 7.46687 6.03903 4.16474
7242 1 1 3.56112 7.87863 3.34951 1.29567
153 1 1 5.83953 8.0953 4.52011 2.17405
1547 1 1 6.57588 8.32859 3.09363 0.900173
6971 1 1 5.47861 8.04545 2.96817 0.551556
1475 1 1 9.24249 7.10143 2.56932 1.50304
408 1 1 6.74685 6.94219 3.9347 5.18906
7335 1 1 8.93335 9.44004 2.86711 3.7292
1809 1 1 10.6781 6.93792 3.24566 2.42644
557 1 1 13.6682 6.80673 5.32029 0.301328
2798 1 1 17.0115 7.30971 4.0368 0.599958
2151 1 1 17.2772 6.95267 1.59275 0.139412
1079 1 1 1.26526 9.20661 4.07634 0.453101
1728 1 1 2.87842 11.1219 3.06996 4.02055
634 1 1 2.51198 10.4918 4.40533 2.17031
1005 1 1 2.45589 9.80008 3.59537 1.8667
715 1 1 6.94417 9.44408 2.86759 2.1724
440 1 1 5.66129 9.19425 2.8972 1.15785
345 1 1 7.2771 8.84824 3.73769 1.23665
154 1 1 7.7266 8.58832 2.4064 2.43681
1194 1 1 9.55662 8.16041 5.06325 0.734965
1295 1 1 8.95452 9.77854 1.74475 2.14291
825 1 1 11.2114 10.0267 5.26543 0.307286
1833 1 1 10.8263 10.4926 4.31497 0.146529
572 1 1 13.2483 10.9085 4.77017 1.42522
7739 1 1 15.2133 11.4712 3.06524 2.44645
1802 1 1 14.8356 10.7419 1.72509 0.872494
7085 1 1 15.4061 9.26288 1.45682 1.05729
790 1 1 17.2839 9.35882 3.23387 0.972501
667 1 1 17.4794 8.56073 3.78614 0.670246
1709 1 1 17.6887 10.6991 3.92877 0.531904
3565 1 1 18.1637 11.5953 4.17115 2.66557
1287 1 1 1.65951 11.2022 4.68127 0.145541
1349 1 1 4.22234 9.5528 3.07023 0.999785
6563 1 1 5.15895 13.01 2.59669 1.40421
7130 1 1 2.94157 12.2202 6.72492 1.35267
6196 1 1 4.64072 9.08584 4.64505 2.15445
146 1 1 6.05223 10.3509 3.4657 2.47509
840 1 1 5.05183 10.802 4.12636 0.421039
5697 1 1 5.58056 10.9504 0.886819 3.55097
529 1 1 7.12247 8.4663 1.61005 0.410296
95 1 1 6.75025 11.2829 2.68749 0.509716
7459 1 1 5.29369 10.8476 2.62523 0.820163
823 1 1 8.82232 9.52708 4.01038 0.443592
487 1 1 8.69407 10.7771 1.79036 2.27196
7139 1 1 8.06307 9.89866 3.36188 1.54528
1940 1 1 8.74678 11.6309 5.41792 1.48375
1487 1 1 8.15521 10.5981 4.41674 0.61825
416 1 1 12.4011 9.87993 4.06376 0.779233
1199 1 1 12.9733 9.13077 3.17534 1.63433
7156 1 1 13.377 11.8856 5.38252 0.891797
7004 1 1 16.7247 10.6058 3.40867 1.52694
1426 1 1 16.7097 9.67858 5.56454 2.36438
1000 1 1 1.12819 10.2576 3.91474 2.55491
2621 1 1 17.8928 10.9826 5.03224 0.364773
6762 1 1 0.988899 12.1692 2.02657 0.865528
2329 1 1 3.84775 12.7491 6.38485 0.673581
7717 1 1 3.47955 12.0247 5.7608 1.82022
7755 1 1 5.06125 14.4816 3.77714 2.84021
6842 1 1 4.6591 12.2341 3.57007 0.0170808
699 1 1 6.28737 11.7087 4.23749 0.553413
2732 1 1 7.65327 13.1212 3.35347 2.17357
7704 1 1 8.09562 11.5664 4.60345 1.23357
1920 1 1 11.9266 11.2849 5.0446 0.606659
640 1 1 10.7715 10.569 3.17774 1.69847
7531 1 1 12.4483 12.2207 5.62555 0.825646
221 1 1 12.6477 10.2766 1.78012 2.55819
1100 1 1 14.3958 13.52 3.95401 0.224374
7798 1 1 13.5147 10.8558 6.35349 0.313832
7040 1 1 14.1946 14.1958 1.51097 3.04408
1493 1 1 16.5188 11.8613 2.37681 1.512
1184 1 1 15.7648 11.9433 4.19258 1.66767
888 1 1 16.4568 14.0773 4.30847 0.347561
1024 1 1 0.442705 11.0533 4.15923 0.770074
986 1 1 18.316 12.3163 5.03718 0.391764
2277 1 1 18.3744 13.4828 4.24234 2.14285
204 1 1 0.165744 16.3167 2.63985 0.330153
1233 1 1 18.0811 12.4963 3.07049 1.49838
203 1 1 0.109946 14.4878 4.39926 4.95477
7621 1 1 4.5144 15.7486 2.95912 1.13992
178 1 1 4.17754 14.21 2.98863 0.990136
7811 1 1 5.3069 12.9196 1.59455 1.27524
584 1 1 5.76749 13.0256 3.44365 2.88736
245 1 1 6.82888 14.6304 4.09919 0.473516
1505 1 1 5.38784 13.1726 5.69807 2.28245
1853 1 1 6.65634 12.7474 3.83897 2.07703
7489 1 1 8.99393 13.3769 3.07188 1.50943
906 1 1 10.0258 13.366 2.73154 0.125598
2032 1 1 11.6287 13.9891 3.38905 0.296668
2126 1 1 13.8146 12.8884 2.34469 1.41514