ITEM: TIMESTEP
1800
ITEM: NUMBER OF ATOMS
8000
ITEM: BOX BOUNDS pp pp pp
0.0000000000000000e+00 1.8820720577620570e+01
0.0000000000000000e+00 1.8820720577620570e+01
0.0000000000000000e+00 3.7641441155241139e+01
ITEM: ATOMS id mass type x y z v_temp
129 1 1 2.21576 18.1142 0.213398 2.59919
7265 1 1 2.50131 2.05873 0.0865207 2.26618
692 1 1 2.50205 1.20608 0.500965 3.17
7267 1 1 1.509 3.05475 36.3971 1.83821
7818 1 1 4.26356 18.4336 1.91126 0.42005
7996 1 1 5.57884 15.9136 37.1466 1.99125
7535 1 1 8.63802 2.34493 3.05934 1.57431
1196 1 1 10.9162 18.2146 1.41487 0.413095
1200 1 1 13.3661 15.8054 4.39586 0.0571665
726 1 1 11.6787 2.55179 1.05018 0.874171
6814 1 1 17.8137 1.93379 36.6047 1.09184
881 1 1 14.4329 18.3773 2.52661 0.494337
1269 1 1 16.902 17.5782 0.628616 2.86039
511 1 1 13.7218 1.89219 2.70806 1.98855
576 1 1 18.1447 4.36146 37.2054 1.595
351 1 1 1.73496 1.95581 0.660088 1.80172
7647 1 1 18.7655 17.6959 35.1899 1.62274
6648 1 1 1.78571 3.9093 3.12955 0.387476
774 1 1 1.68001 3.00845 2.39513 0.635997
7226 1 1 4.78829 1.65525 1.34157 1.29836
547 1 1 5.45916 0.941208 2.32405 2.20889
6076 1 1 5.70892 2.15775 2.1751 3.01264
7503 1 1 6.56613 2.9231 1.04459 0.19988
7982 1 1 7.43748 18.5028 4.1753 0.32156
6986 1 1 10.5509 1.13296 1.48669 1.06959
6855 1 1 8.83045 2.54725 36.8175 1.11306
7032 1 1 9.59837 4.38362 1.15017 1.3923
1806 1 1 13.3755 3.52626 0.617126 0.746759
593 1 1 10.7519 1.83084 37.4219 0.609888
1333 1 1 12.4678 1.77477 0.687746 2.6782
7669 1 1 12.7644 0.911245 2.9542 0.515826
1315 1 1 17.2703 3.00856 0.62977 2.47506
914 1 1 15.1182 17.2631 4.10269 1.60659
7301 1 1 14.1348 2.81485 0.0675699 4.6317
1473 1 1 14.6719 2.26251 2.4371 0.824093
6868 1 1 15.4692 3.57308 0.286831 1.22388
18 1 1 0.408237 1.98655 2.81078 2.12894
7440 1 1 15.3521 1.22 2.26261 2.7182
47 1 1 17.3201 4.52957 2.67479 0.402509
447 1 1 0.309035 6.93689 36.8159 0.467839
508 1 1 1.42031 3.18703 0.535181 0.946484
6006 1 1 0.895387 3.43932 37.3749 1.15648
7660 1 1 3.88076 4.83004 2.00338 1.62836
7718 1 1 4.89711 4.45141 0.567687 0.352574
1309 1 1 6.51447 2.74543 2.29654 1.35078
7332 1 1 7.10173 1.89361 2.1525 0.545275
7653 1 1 8.16538 2.97442 1.93592 0.0874874
6477 1 1 7.98149 1.84725 1.33396 0.871151
7666 1 1 10.5475 4.4384 2.70855 4.25717
73 1 1 11.8955 3.05106 37.5504 0.738073
1664 1 1 14.4963 5.39373 0.941967 0.651111
7911 1 1 13.3179 2.83138 36.7066 0.258661
271 1 1 13.5557 4.89565 0.993609 1.08821
515 1 1 12.3333 2.04074 1.67863 0.14872
966 1 1 16.7996 2.47621 36.6889 2.51236
7841 1 1 0.564528 2.94234 1.8392 0.154462
366 1 1 1.55713 3.93875 1.33809 0.905277
7937 1 1 18.3853 3.75008 2.51153 0.444518
7507 1 1 0.695839 6.20448 0.907167 0.899352
3 1 1 4.65406 3.59952 2.14079 2.96331
7879 1 1 4.72823 5.61681 1.72789 4.85662
429 1 1 7.81808 6.00718 0.974863 0.627645
1850 1 1 5.61123 3.87732 1.30735 0.842737
529 1 1 6.34842 6.66299 2.24705 0.551175
7644 1 1 10.8452 5.66654 2.09941 1.92825
6942 1 1 6.12634 3.85746 3.31276 1.13668
7625 1 1 12.4338 6.09799 2.37357 0.445414
6703 1 1 9.75488 4.94889 2.13561 1.8206
7466 1 1 9.41218 5.63758 37.2414 0.730597
1329 1 1 15.8414 5.33594 0.318565 0.193033
6872 1 1 13.501 0.0998521 1.43374 1.45401
7432 1 1 18.0727 7.38994 2.2777 5.34139
7086 1 1 1.36716 1.91851 36.363 0.734233
7641 1 1 2.45855 8.04574 4.10306 1.11795
6848 1 1 3.58219 7.65176 2.55819 0.217888
354 1 1 4.4655 7.55517 0.408346 1.95225
1045 1 1 3.0853 4.04879 1.04731 0.803903
945 1 1 7.31729 8.80317 37.3361 3.58007
7663 1 1 5.48801 5.04786 1.35319 0.510757
193 1 1 10.0059 3.43708 37.537 4.17023
796 1 1 9.46901 5.4617 3.94044 3.08426
543 1 1 13.9638 7.11732 2.48777 0.482349
6657 1 1 12.2429 9.97436 36.5969 0.756559
7348 1 1 11.8597 5.50693 1.72879 4.09555
91 1 1 14.6147 8.03146 1.42352 1.22912
276 1 1 15.441 7.96091 0.123407 3.2113
7972 1 1 13.5688 6.06134 2.09373 1.66793
79 1 1 16.0863 9.45159 2.48074 0.852154
7479 1 1 15.8066 6.42343 35.9092 0.691629
72 1 1 1.69051 6.80502 0.094557 0.85249
6762 1 1 1.66775 8.56607 0.652365 1.93017
6705 1 1 2.46403 8.69969 37.5253 2.52666
158 1 1 2.87636 9.09912 36.5764 1.05118
7424 1 1 1.51178 7.14563 36.4624 0.331786
7047 1 1 3.88778 8.52317 37.5341 3.71192
997 1 1 5.81299 6.21108 37.3647 0.859936
925 1 1 5.59497 7.74071 1.19699 0.29124
7803 1 1 3.75317 6.13705 1.46128 1.81435
6235 1 1 8.03202 8.84576 36.2803 0.74427
6874 1 1 7.28439 9.19057 1.12347 0.0477147
7096 1 1 8.15037 7.24993 0.308161 0.526859
1820 1 1 8.5644 5.84103 35.7416 2.69263
214 1 1 7.83794 7.33711 1.91536 1.71301
6619 1 1 12.3809 7.93099 0.336547 0.347521
181 1 1 12.6887 9.10861 37.0267 0.988464
86 1 1 16.7818 9.2361 37.2401 1.63786
762 1 1 15.424 6.71729 37.5822 1.58444
617 1 1 14.4712 7.71722 0.129872 1.1562
108 1 1 17.3636 6.49235 3.91391 2.32858
884 1 1 0.829396 9.38598 34.7303 2.30362
736 1 1 17.7341 10.3545 36.5494 0.513971
146 1 1 1.79744 12.0632 36.4698 3.04216
5397 1 1 1.85416 10.1825 0.814013 3.57568
442 1 1 1.2181 8.99634 36.0887 1.12296
7721 1 1 1.98316 10.0036 2.63653 1.58838
6126 1 1 6.36752 8.71749 0.946911 0.763461
538 1 1 3.21679 7.66471 37.4172 1.50255
178 1 1 2.42468 9.67752 1.50736 0.359927
5813 1 1 7.76372 9.6177 34.6963 0.328319
7326 1 1 6.37992 8.12688 37.567 1.51508
1046 1 1 6.52847 9.80288 1.56113 4.08964
721 1 1 10.7014 10.5823 0.994534 0.670716
1224 1 1 7.34695 8.37867 1.88189 1.08247
570 1 1 8.30483 4.73281 1.96396 0.656078
6470 1 1 11.2659 8.20467 37.2857 1.30237
6933 1 1 9.36974 9.49428 0.261319 0.865467
6527 1 1 12.0856 11.6327 37.4938 2.70231
6693 1 1 12.5924 9.7646 1.31001 0.37721
349 1 1 14.3052 10.9036 35.8519 1.49295
1349 1 1 17.1666 10.4867 1.68455 1.63784
253 1 1 11.2388 7.49187 36.5796 0.876751
1074 1 1 15.5106 8.71381 1.06249 1.18201
877 1 1 18.0573 7.86121 35.9899 0.455977
712 1 1 15.9755 10.5634 2.10928 3.37344
7913 1 1 14.4478 10.2004 2.26567 1.19722
1036 1 1 18.1886 8.56973 1.98473 1.45056
889 1 1 18.7596 10.134 37.5626 0.942403
1093 1 1 0.916008 10.3942 2.67452 0.397852
1280 1 1 1.729 11.4308 2.39318 2.85356
7011 1 1 5.71683 11.7697 1.18507 1.11421
7144 1 1 6.99191 8.28325 35.7707 3.21276
1172 1 1 4.92796 8.41372 37.4103 4.34651
7621 1 1 3.05785 9.26161 0.470366 5.03076
6842 1 1 7.38608 10.2111 0.988997 0.821234
7065 1 1 7.73151 9.90304 0.14353 0.950813
10 1 1 7.79617 11.0652 1.38075 1.98132
7740 1 1 8.34704 8.78044 0.769412 1.96624
6750 1 1 13.1226 12.8951 1.24655 1.01447
574 1 1 13.8007 10.715 0.164526 1.14138
7635 1 1 13.2944 10.4198 36.0917 3.38525
423 1 1 15.5037 11.2938 1.59797 0.256377
501 1 1 13.0666 12.5875 37.2267 2.38326
683 1 1 14.1499 9.78313 0.34734 1.4836
669 1 1 16.9839 8.43548 1.75437 0.419492
247 1 1 17.3125 9.13727 2.29945 1.26955
5857 1 1 17.7875 8.56384 36.967 3.68565
1528 1 1 0.480266 11.2191 0.401237 1.67276
1350 1 1 4.00339 12.5307 0.287431 4.75509
7060 1 1 1.74106 12.453 2.57662 0.0551727
7174 1 1 3.35165 11.6865 0.110933 2.38763
1681 1 1 6.16617 11.2957 0.376924 1.75563
584 1 1 6.588 11.9691 2.00624 1.53506
365 1 1 7.80278 13.5725 1.53019 6.69945
955 1 1 7.44963 10.9276 0.261294 2.47458
38 1 1 11.8928 11.0914 0.987873 0.707145
255 1 1 9.82895 13.4421 37.1334 2.61494
6752 1 1 10.549 12.2953 0.306899 1.81408
6567 1 1 11.6788 12.563 36.9789 0.278203
286 1 1 11.4119 12.1549 1.19122 0.246704
7545 1 1 12.969 11.4343 0.846816 1.02228
7634 1 1 13.5729 11.3921 37.0304 1.41715
237 1 1 13.9646 12.8328 36.203 0.653066
7483 1 1 17.662 11.1081 37.4407 2.57086
6599 1 1 15.6234 9.61135 0.5998 1.15541
7089 1 1 18.2976 11.0898 0.947268 1.30368
579 1 1 17.844 13.5778 0.26069 5.50629
1234 1 1 17.2803 11.679 1.0497 1.16855
7555 1 1 0.103612 13.8447 36.3703 1.57497
6788 1 1 5.36903 11.5106 35.9089 1.00851
8000 1 1 3.95543 14.0873 0.0316191 0.976062
6232 1 1 4.98078 13.3075 0.543063 1.41749
1995 1 1 6.72278 15.7173 0.541408 1.13962
215 1 1 3.34805 17.0749 3.73937 0.854984
815 1 1 6.34917 12.6677 1.16817 2.09153
1908 1 1 10.3808 13.9035 36.4266 0.735593
5866 1 1 9.41555 14.5508 0.896249 1.56201
53 1 1 8.86287 13.51 1.87339 0.615062
6686 1 1 12.5056 12.5487 0.548104 0.416187
7888 1 1 15.3701 13.1636 36.6123 0.617617
7390 1 1 15.8777 15.1662 37.4406 0.677365
234 1 1 18.5042 12.8252 1.265 0.298703
375 1 1 16.7504 13.6244 1.98598 0.413276
7826 1 1 17.4108 14.2683 2.45821 0.522704
634 1 1 16.6157 11.4199 0.0434374 1.37832
7947 1 1 0.390168 13.5671 0.581913 1.7727
7968 1 1 0.379094 15.4374 37.4313 3.74789
1529 1 1 0.721353 14.5652 0.737016 2.49397
559 1 1 18.6137 16.1536 2.56258 1.09077
704 1 1 5.22276 12.364 0.106612 0.996047
7854 1 1 6.01637 13.322 0.126813 6.07408
769 1 1 5.28293 13.3557 2.04199 1.66973
6379 1 1 7.09437 11.9762 1.06029 0.995646
7926 1 1 2.60052 16.1618 0.44394 1.20556
504 1 1 4.67273 16.0602 1.94206 0.780411
6600 1 1 5.95799 15.1733 0.970405 0.293847
1150 1 1 8.99678 15.3521 36.3871 0.621492
7457 1 1 10.8423 15.2413 37.4979 1.38412
377 1 1 7.67028 16.8922 2.96672 2.34964
746 1 1 0.211395 16.4949 36.2758 1.73817
1042 1 1 16.4116 15.3628 0.756169 1.6154
629 1 1 15.3898 15.301 1.43759 4.66894
558 1 1 2.71086 14.4167 0.55663 2.00572
7869 1 1 18.3006 15.858 36.1661 0.299445
7951 1 1 17.3549 14.8158 1.45755 3.12064
7604 1 1 3.29251 0.951537 37.4278 0.357894
1485 1 1 3.60838 17.7737 36.3565 4.04607
1481 1 1 3.63699 15.6195 0.261975 3.65684
775 1 1 5.80613 0.284968 0.205672 1.38529
7569 1 1 4.87818 16.6305 37.5734 0.340401
7206 1 1 9.64839 17.6547 36.3507 1.71611
6914 1 1 8.42042 17.2429 1.95453 0.795119
227 1 1 10.7827 15.9818 3.24034 1.39344
708 1 1 13.0911 16.1735 36.375 0.78578
7550 1 1 10.6924 17.9416 0.464733 3.21877
7341 1 1 12.516 16.5112 0.680798 0.501596
1110 1 1 14.5746 16.4342 1.63962 3.83075
22 1 1 15.6682 17.4687 37.252 1.30646
356 1 1 13.5197 16.9349 0.737211 1.13438
7202 1 1 16.1304 17.1119 1.36035 1.63209
7999 1 1 15.5344 14.7355 2.44893 0.522076
6845 1 1 18.2046 0.849443 37.1447 0.342212
6777 1 1 2.3822 0.30949 0.12911 2.28818
194 1 1 1.39892 0.978057 0.247212 3.98401
6713 1 1 3.72952 17.7962 37.487 1.06303
6835 1 1 6.07693 17.6844 1.41556 0.905119
1573 1 1 4.72503 18.6001 2.93331 1.30259
228 1 1 5.67613 14.749 36.0783 1.68156
3576 1 1 8.26197 18.6831 0.121372 0.351216
1206 1 1 10.0687 17.5637 1.15098 0.559055
1139 1 1 10.1206 18.7316 1.19394 0.742236
2020 1 1 12.2354 16.4527 35.5456 1.66533
1339 1 1 12.0682 0.486355 1.84708 3.77645
338 1 1 10.4292 17.1604 2.14338 0.196254
6636 1 1 15.8593 16.2871 0.036692 0.549947
7478 1 1 18.6338 1.40542 36.4067 2.82341
7261 1 1 0.130204 18.3194 0.688834 0.395181
2367 1 1 18.303 17.3767 0.409654 0.723169
33 1 1 18.3212 0.766315 35.3279 1.38489
1999 1 1 17.3337 18.5491 1.80372 0.526513
1198 1 1 1.98416 0.0746213 1.31165 0.801613
643 1 1 1.92425 0.660283 3.17997 1.02286
2347 1 1 6.18887 18.6047 4.3918 2.30407
6152 1 1 3.97678 2.36332 0.422945 0.684021
175 1 1 8.31457 1.19277 2.09092 1.51628
895 1 1 6.45461 0.90897 2.43417 2.30447
633 1 1 6.01004 1.88156 3.0723 0.42226
1446 1 1 6.80418 0.849467 0.799433 2.12231
1416 1 1 9.03195 0.679206 1.38725 0.273114
94 1 1 8.99529 1.86288 2.30314 0.419388
1749 1 1 12.1954 17.7273 2.88944 2.28087
824 1 1 10.7915 1.31617 3.34894 1.39949
6079 1 1 10.3045 0.0162877 2.38227 2.84003
7745 1 1 12.5809 0.549506 0.32363 0.159668
383 1 1 16.6754 1.13476 0.100251 0.979656
677 1 1 15.6453 2.39293 37.4975 1.7358
608 1 1 0.501371 17.8784 2.72095 0.516819
31 1 1 0.378317 3.51141 0.700669 0.739337
1348 1 1 4.44791 3.57642 37.4166 3.24952
427 1 1 18.4339 3.00635 6.57549 4.44348
155 1 1 3.85802 2.2978 1.48999 0.357811
7903 1 1 1.78617 3.02192 3.57469 2.45155
109 1 1 4.58704 0.717058 3.46761 8.0177
406 1 1 2.60156 2.97297 1.61462 0.174002
936 1 1 4.18682 3.38619 1.04681 0.450932
2126 1 1 7.57893 1.38703 4.14069 0.433105
7539 1 1 10.9744 3.28211 4.16292 0.398609
1993 1 1 11.9377 1.29204 2.48144 3.84801
418 1 1 8.50115 2.59264 0.160693 0.392051
1213 1 1 11.8652 2.41552 2.67057 2.08574
100 1 1 10.7697 2.66184 0.378477 4.41828
1308 1 1 14.3948 18.0914 1.15087 1.96425
1007 1 1 16.8784 17.3567 2.41148 4.05582
1344 1 1 16.4662 18.4792 3.42302 0.620277
206 1 1 18.16 2.47032 3.35659 2.40731
7088 1 1 18.2192 1.61888 0.711808 0.533384
7980 1 1 15.214 1.42257 4.55439 0.599532
7646 1 1 18.2376 3.35494 3.98075 2.81348
6995 1 1 18.7258 6.25295 2.54109 0.366986
875 1 1 3.1903 3.65332 37.5543 0.542726
1409 1 1 1.07465 5.20636 0.238138 0.079121
879 1 1 0.144475 2.6165 4.29056 1.53255
1237 1 1 5.52698 3.36592 2.6252 2.56931
7251 1 1 2.26874 3.83576 4.3406 2.25999
580 1 1 5.78169 2.99258 37.6235 0.048964
125 1 1 5.24354 4.36996 3.0904 1.78983
623 1 1 10.1045 5.49317 3.03334 1.47203
656 1 1 4.66592 2.57523 2.32317 0.459788
385 1 1 7.13255 2.62335 5.50459 1.84162
6659 1 1 9.74323 2.43944 1.61314 1.44505
934 1 1 9.01374 1.88268 0.605978 3.05945
3337 1 1 9.43969 4.24676 3.20611 1.03266
7588 1 1 11.1821 3.66853 0.979392 1.13509
505 1 1 14.4974 1.50588 1.80425 0.776124
7719 1 1 13.7365 6.19563 3.19424 0.303038
1377 1 1 14.1582 2.46245 1.14784 0.00414822
1422 1 1 16.5035 3.40861 4.06529 1.18595
1183 1 1 15.3435 2.73055 1.30351 0.637078
651 1 1 16.7716 3.55889 2.12703 0.388882
7998 1 1 15.9171 5.32064 2.83143 1.80307
314 1 1 18.2057 5.19957 2.4621 1.90089
802 1 1 0.0865228 5.12264 1.30608 1.06236
1287 1 1 1.118 5.52315 2.35138 0.890197
190 1 1 2.95615 5.92761 0.597339 0.892457
2824 1 1 3.77814 3.11465 2.18683 0.34555
1714 1 1 4.58772 5.43956 3.65563 2.54167
7631 1 1 3.3399 5.74363 2.55701 1.9352
1717 1 1 2.9726 6.6376 3.35974 2.70386
1977 1 1 1.57148 5.89004 3.56154 2.21967
661 1 1 6.60892 5.05764 2.72885 0.986607
6922 1 1 8.89613 4.65276 0.0634343 0.89701
1076 1 1 8.69359 6.74241 1.80915 0.296655
6136 1 1 7.88261 5.21339 2.92498 2.59783
492 1 1 11.978 7.83783 4.00334 1.98485
1051 1 1 12.9656 7.48421 2.12861 0.444447
582 1 1 6.87889 5.90498 1.56472 0.683194
2221 1 1 14.915 3.90709 1.26896 1.27853
7185 1 1 15.1625 5.46127 1.5954 0.832568
6241 1 1 14.949 4.07861 2.40008 1.20062
444 1 1 18.7161 4.31642 0.741574 1.97601
6975 1 1 18.4172 8.31402 3.15028 0.302499
1562 1 1 1.34987 6.62387 2.01776 0.123427
230 1 1 0.115795 9.6639 2.71042 1.83674
7659 1 1 1.36719 5.04888 1.41769 0.644077
7738 1 1 4.73411 7.54249 2.57597 1.38787
7651 1 1 1.63331 6.7285 4.32382 1.77186
7215 1 1 5.90713 6.08913 1.14414 2.06451
1405 1 1 6.89642 6.54422 5.74197 0.683964
2348 1 1 10.7118 3.07329 1.67596 3.41361
1194 1 1 9.38459 8.53769 2.45765 0.829643
140 1 1 12.4909 6.7508 0.554046 1.96251
469 1 1 15.408 4.26295 4.02888 0.0223751
1193 1 1 13.7382 8.68986 0.825347 1.96906
1274 1 1 14.313 10.1127 5.01225 0.696321
2197 1 1 17.0774 6.67681 37.1217 0.409
223 1 1 16.9184 4.9077 0.455068 5.99797
7358 1 1 16.8027 5.3161 2.11741 0.340766
6675 1 1 0.4193 7.75892 2.30429 1.15911
1596 1 1 2.95377 7.47627 1.11441 1.64661
1917 1 1 1.43843 8.34425 3.85406 5.91072
926 1 1 0.398751 8.72142 2.54757 2.29535
7791 1 1 2.67108 8.10533 5.62156 0.119392
7966 1 1 2.886 10.3384 2.31656 0.873289
5817 1 1 2.19664 6.25424 2.23917 1.71186
1002 1 1 1.21263 6.69216 3.10196 3.40276
626 1 1 5.88225 7.44011 3.46941 2.38973
615 1 1 7.3371 7.7191 0.951804 1.18035
7643 1 1 7.03362 6.11482 3.01942 0.780153
1427 1 1 4.78804 6.70577 1.11995 1.55011
568 1 1 7.47806 7.77248 3.04087 1.56438
7748 1 1 8.47972 5.73266 2.20076 0.417048
6538 1 1 12.6189 8.40469 2.6858 1.34031
188 1 1 9.17826 6.19579 2.8822 2.79719
1069 1 1 11.5014 10.2109 1.7065 1.8539
285 1 1 14.044 8.25827 4.17399 4.52893
7021 1 1 15.2267 9.02056 37.3836 0.310306
7983 1 1 13.7219 9.60497 1.42225 3.97595
550 1 1 11.5248 6.32984 0.566238 2.96327
7717 1 1 17.9555 5.76619 1.51191 2.41462
1318 1 1 0.878138 9.47294 36.9165 4.1528
6875 1 1 16.8681 7.90677 3.94463 1.33614
7280 1 1 18.6633 4.35137 3.5434 0.735226
107 1 1 16.5615 8.75992 3.08989 2.10422
2110 1 1 1.43719 7.79004 4.88392 3.20411
481 1 1 5.45049 10.3261 1.39973 3.03927
750 1 1 0.859041 12.0048 36.9438 0.271272
7482 1 1 4.52332 7.4096 5.02734 0.142668
1301 1 1 2.41064 8.8772 3.52773 3.88864
6987 1 1 3.70479 8.47466 1.96776 1.4139
1547 1 1 5.44981 8.13691 2.09798 1.97164
7335 1 1 7.63199 9.82994 2.0397 0.708096
1001 1 1 6.03373 9.89961 2.61367 0.864229
2177 1 1 8.85662 3.38133 2.59622 1.658
7002 1 1 8.61818 10.2135 1.07803 1.92422
7943 1 1 9.72586 8.53095 1.02965 1.66061
2244 1 1 11.5838 8.15121 1.94121 1.37395
6497 1 1 10.3661 9.64794 1.9141 0.277292
6463 1 1 12.2567 8.98918 0.635844 8.38466
6669 1 1 13.3531 8.09064 37.2841 0.228231
973 1 1 11.0392 9.22995 1.11093 0.0644322
7851 1 1 17.7562 9.21266 3.26541 0.146376
790 1 1 15.2471 9.99648 2.58985 0.611078
6569 1 1 18.5839 9.77556 1.03607 0.522023
967 1 1 4.9858 9.63297 37.5104 2.94572
863 1 1 1.48802 10.4183 4.45689 1.70455
1790 1 1 6.62651 10.7745 1.33542 1.14728
1417 1 1 5.2375 9.50358 3.0841 0.412184
1542 1 1 7.75949 10.8131 2.7148 1.34276
232 1 1 12.7469 10.9717 37.362 1.7853
1107 1 1 9.29931 7.42845 2.5376 0.899939
7984 1 1 10.0867 13.8953 2.1155 6.07533
7156 1 1 10.536 10.3033 2.75632 2.66955
653 1 1 14.856 14.4138 1.26585 0.472787
296 1 1 15.2768 10.1046 37.4324 0.527015
6590 1 1 14.8956 12.2947 0.124732 0.957427
6939 1 1 12.4845 12.2052 1.63976 0.521288
84 1 1 16.6451 9.88179 5.34053 0.597059
386 1 1 11.4815 10.8515 2.69403 0.211617
7470 1 1 14.7004 9.24924 4.56162 1.01346
818 1 1 14.8172 11.1068 2.63051 0.73365
7800 1 1 17.0641 9.80202 3.03317 1.50211
7845 1 1 1.64526 10.6004 5.46209 0.627242
1360 1 1 0.835757 9.8638 1.53499 0.276873
259 1 1 18.6299 11.0692 2.18551 0.27868
7811 1 1 0.907226 11.9594 1.58276 3.00033
340 1 1 3.80035 10.6141 1.1162 0.549966
6646 1 1 3.9903 12.6698 2.63453 0.135284
7805 1 1 2.51477 11.609 37.2388 1.25093
773 1 1 2.58285 12.2831 1.33324 0.209743
834 1 1 4.56376 11.3361 1.24142 2.23722
7248 1 1 6.61198 13.4705 1.94346 1.82171
290 1 1 5.56882 12.2827 5.48801 0.777826
7704 1 1 8.79251 12.3049 2.08214 1.17507
1165 1 1 7.32885 12.6633 2.51193 1.73384
6946 1 1 9.02668 14.2965 2.91381 1.54339
4198 1 1 11.1208 11.505 1.89954 1.67975
2814 1 1 11.4468 12.1132 2.6235 1.48194
7444 1 1 15.7129 13.9287 1.89489 1.84971
7867 1 1 12.5484 10.5518 2.15371 3.18349
1971 1 1 17.8301 13.1313 2.07649 2.69886
7855 1 1 1.70075 12.8153 1.05518 0.181535
7772 1 1 1.88815 11.5246 0.352823 3.40826
245 1 1 0.498035 12.0457 3.07908 3.22524
6650 1 1 2.26757 13.7235 1.97606 5.24439
7056 1 1 4.55041 12.3707 1.24413 2.93514
7610 1 1 7.86553 11.4925 4.64933 1.59435
452 1 1 7.28889 13.0857 0.428546 4.86391
1144 1 1 8.74859 11.8669 0.98606 1.32558
1448 1 1 5.96578 13.4335 2.8907 2.07669
1210 1 1 8.19212 14.9861 1.2949 0.115371
1178 1 1 5.99509 12.1956 3.15393 0.638282
6632 1 1 7.52384 12.8631 5.00539 0.347386
1848 1 1 10.0779 13.3418 3.51193 1.42591
1103 1 1 11.5375 13.1155 0.220544 0.47529
6824 1 1 11.6358 14.1068 2.0357 2.36214
1187 1 1 14.3341 13.5442 3.71727 1.91238
1143 1 1 15.6967 10.9301 3.44567 2.1286
7853 1 1 15.7389 14.6399 0.770874 1.38991
393 1 1 15.8367 13.2589 0.614597 1.2853
7887 1 1 0.839848 14.0291 3.62834 3.58115
1604 1 1 17.9329 15.2367 5.56985 2.29308
757 1 1 2.98308 17.2232 0.334869 0.562447
1509 1 1 1.10976 17.4089 1.21659 1.73049
7957 1 1 1.5912 14.9845 0.83243 3.32432
6243 1 1 3.86208 14.2762 36.4541 3.12056
445 1 1 5.15134 11.8114 2.15138 2.36958
399 1 1 5.0067 12.7893 3.00577 2.82973
1527 1 1 4.99469 14.6363 2.34871 2.21312
6851 1 1 9.33275 16.932 1.64683 2.41654
902 1 1 7.6304 15.675 3.14028 1.3339
829 1 1 7.96664 12.0582 0.242046 1.14683
7040 1 1 10.7956 16.0325 2.12205 0.75908
2661 1 1 10.3689 14.2026 5.52206 2.2127
3108 1 1 9.9752 14.3191 3.25774 3.44364
6723 1 1 11.7225 13.1409 1.67695 0.633119
389 1 1 14.3586 15.4091 1.16377 1.12977
2345 1 1 14.7701 14.56 0.236903 1.74512
7548 1 1 15.8036 11.8408 0.581698 1.09739
2287 1 1 14.8039 16.3866 0.512849 3.44364
1439 1 1 13.8603 17.5811 3.23429 1.51855
1638 1 1 17.5678 16.5644 2.1939 1.49871
785 1 1 3.80399 15.8788 1.3373 1.32342
328 1 1 0.378599 16.8817 1.68325 0.429631
844 1 1 4.74799 15.6331 0.865472 1.36168
332 1 1 0.599871 16.7415 2.64955 2.51053
6459 1 1 4.4284 13.7011 2.67579 0.728105
7613 1 1 4.93813 0.460375 1.63185 1.51253
728 1 1 6.08172 14.1449 4.81909 0.372845
7856 1 1 9.20809 17.1975 4.01804 1.38884
1432 1 1 6.21039 14.0336 0.833901 3.27508
1582 1 1 7.67657 17.1541 0.759628 1.49943
854 1 1 11.7857 14.7374 2.90506 3.59594
416 1 1 10.8153 14.8953 2.01857 0.886536
343 1 1 10.6219 16.7299 0.110022 0.835619
7149 1 1 11.8003 17.0063 1.87243 2.16297
1904 1 1 12.864 14.1623 3.20531 4.71561
1406 1 1 16.3872 14.6577 1.92451 0.302979
40 1 1 14.6493 16.7801 2.60141 0.0558475
2409 1 1 18.6218 14.7358 1.49014 2.02053
5999 1 1 17.6556 16.3185 0.678631 0.115383
1634 1 1 2.35567 16.2893 3.35801 3.98662
318 1 1 3.04385 0.597057 36.5498 0.52541
686 1 1 2.41928 15.3976 1.45361 2.2258
1729 1 1 3.90687 17.3941 1.13207 1.26014
6866 1 1 7.15364 17.6451 2.40447 3.15548
1328 1 1 8.26463 18.6911 1.83947 0.873837
7785 1 1 6.21738 1.71404 1.23383 2.84417
605 1 1 6.59495 17.3795 0.251643 1.12588
1785 1 1 9.10334 17.469 2.82129 1.91048
7230 1 1 10.7483 16.4236 4.88878 0.347115
6673 1 1 10.5577 18.6899 4.32507 0.4484
696 1 1 11.8492 18.2507 1.84678 0.475119
841 1 1 11.4533 17.051 3.21272 3.36646
2270 1 1 13.8678 0.579782 2.30138 2.32077
273 1 1 13.5082 17.4322 37.3519 2.35371
859 1 1 17.9406 17.4352 1.33239 0.166854
180 1 1 16.6341 17.4234 3.71677 2.95764
1186 1 1 15.1067 0.00503875 1.2347 1.36391
7930 1 1 0.499005 1.24368 0.885328 2.2343
7188 1 1 0.537083 3.4739 3.66359 4.70905
1926 1 1 18.7485 15.42 4.93091 0.694476
7938 1 1 1.76179 2.37863 1.6108 0.903628
7934 1 1 4.39944 17.2672 1.99773 3.1978
489 1 1 2.76608 2.44286 2.43146 0.799899
3146 1 1 4.00994 0.875325 2.48476 0.930165
1930 1 1 4.90044 18.0983 4.42557 1.3495
1140 1 1 6.34361 18.8011 1.93892 1.532
7122 1 1 3.22625 18.3666 5.32336 2.16623
1331 1 1 5.43009 16.9806 4.76848 0.704097
6321 1 1 5.03016 1.89178 4.91977 0.797943
1168 1 1 7.30038 0.446799 2.78814 4.55278
497 1 1 8.03615 1.1031 3.05278 0.880264
566 1 1 6.94267 18.3035 1.17114 1.3172
1658 1 1 9.3759 0.114628 5.47956 1.42579
700 1 1 10.3262 1.98912 2.69833 0.421831
1708 1 1 9.45871 0.914743 2.37386 1.02636
906 1 1 11.4548 2.27341 3.62918 0.630305
2106 1 1 13.206 1.50395 1.41281 4.03314
871 1 1 13.9509 0.655833 5.40313 2.76044
990 1 1 12.5698 17.0221 3.47651 1.61105
787 1 1 2.17281 17.0762 3.90413 2.35832
982 1 1 17.3077 3.53692 3.39382 1.29856
7950 1 1 10.7308 17.8592 2.75783 0.810094
1223 1 1 15.2714 1.8881 3.21122 3.57981
894 1 1 14.9226 0.620706 4.1371 1.62767
1265 1 1 16.443 1.24712 2.37065 1.12588
915 1 1 3.7168 2.10014 3.1771 1.83857
1279 1 1 3.38555 18.8255 3.45046 1.45522
611 1 1 2.69433 18.0224 3.56101 3.57989
1543 1 1 4.96827 1.78389 3.13327 4.66105
1208 1 1 7.72491 2.31378 4.56449 0.24231
886 1 1 8.55735 1.43374 6.40281 1.78183
96 1 1 9.04951 0.820966 3.8013 1.41186
2103 1 1 7.98481 1.84383 5.65379 0.579398
553 1 1 12.9538 5.27207 1.81666 2.64672
640 1 1 12.7613 18.6769 2.18631 1.00427
409 1 1 13.3493 2.17484 3.82006 0.801541
387 1 1 14.1932 2.19936 4.40008 2.32664
1229 1 1 17.0064 2.1578 5.11292 1.63118
7246 1 1 14.7195 18.1418 3.66444 2.41563
7914 1 1 15.8956 4.12108 3.00637 0.864679
816 1 1 0.769584 6.30842 4.98429 0.340668
1338 1 1 18.4623 5.64382 3.91454 0.694899
1805 1 1 1.88419 2.42584 6.56094 0.180314
7284 1 1 2.02534 5.14392 2.55635 1.02694
509 1 1 2.31755 4.21983 2.23633 0.232269
1281 1 1 1.9277 3.14585 5.68571 1.41165
7123 1 1 2.81595 4.31289 3.34519 0.11635
56 1 1 7.39894 3.10923 2.57816 2.91653
585 1 1 8.59313 4.24119 4.09199 1.51651
528 1 1 8.04451 4.65005 5.38428 1.42378
2318 1 1 7.65836 4.54598 4.02898 1.62017
7989 1 1 7.52062 2.39231 3.38543 1.7251
177 1 1 9.69271 1.41761 4.78858 3.1376
7685 1 1 7.56745 4.14147 2.98715 1.51907
1661 1 1 11.0548 4.43059 1.75746 1.93609
1826 1 1 12.4297 4.92007 2.56951 0.897099
7725 1 1 17.1356 4.25013 5.86895 0.0899634
7155 1 1 13.8331 3.94005 1.43032 1.26689
1203 1 1 13.3768 4.94537 3.01063 0.402802
1239 1 1 14.4546 3.15781 1.88964 0.297924
7468 1 1 15.7667 3.61542 1.86426 0.0238244
148 1 1 17.5239 2.78015 4.37942 1.03571
1591 1 1 16.904 2.35946 2.30877 1.66954
3932 1 1 17.2101 2.62381 6.89132 4.91625
6396 1 1 0.505483 6.27188 3.72127 1.1027
15 1 1 0.704371 4.81762 3.14095 2.61546
62 1 1 6.27345 3.43785 4.43989 1.01199
7532 1 1 6.56012 6.07017 4.26956 1.79607
691 1 1 8.40832 7.28441 5.03016 1.24885
1648 1 1 9.93272 3.05981 2.8958 1.97932
122 1 1 10.9413 2.8356 3.00033 1.96675
2455 1 1 11.6622 4.7635 4.08802 0.0540753
1698 1 1 13.0641 6.04772 4.86429 1.06335
7422 1 1 13.6915 3.11114 4.97243 2.88224
6541 1 1 16.8008 6.2803 4.78218 0.0660629
2075 1 1 12.6031 3.17796 4.66727 0.882264
2392 1 1 15.4476 5.95794 4.72585 1.99981
581 1 1 14.8337 5.24083 4.70467 0.510156
486 1 1 15.3613 7.21163 1.95946 3.92789
102 1 1 15.1534 8.15594 2.36024 0.313715
235 1 1 17.3649 6.84682 2.85076 1.37858
6533 1 1 3.19628 6.6655 6.83645 1.55882
7456 1 1 4.09585 8.10792 6.06819 1.74014
523 1 1 18.1033 4.3671 5.60879 1.34716
548 1 1 2.20145 5.06187 3.70485 3.1338
1883 1 1 3.2834 5.40058 3.65416 0.269875
6767 1 1 5.11338 6.68104 2.89065 0.329247
7921 1 1 5.94716 4.26211 2.11946 1.35772
1177 1 1 5.53065 7.74719 5.03352 2.33251
7904 1 1 5.51213 5.54803 2.38915 2.97966
455 1 1 10.4494 4.16744 3.84776 1.27498
980 1 1 11.33 3.77317 2.79269 1.195
1833 1 1 14.3365 5.47252 2.26554 0.641541
2017 1 1 15.061 5.13672 3.42539 0.652594
591 1 1 15.8424 7.40401 0.990661 1.1193
1715 1 1 17.7278 6.30531 5.28537 4.68576
928 1 1 18.713 7.26867 3.12327 0.943162
1637 1 1 17.6547 7.53795 4.49129 0.245116
1399 1 1 0.161179 8.32182 4.24283 4.92094
7795 1 1 18.2733 8.40149 5.04478 1.17132
134 1 1 3.67476 8.43655 4.10098 1.40562
1864 1 1 5.8999 6.51049 3.63245 3.225
1334 1 1 8.61772 8.33053 6.15336 0.787438
7459 1 1 8.99447 10.9605 3.04126 1.12932
7322 1 1 8.05378 6.45937 4.19597 1.50433
1927 1 1 12.7681 5.82678 3.6266 1.00606
5690 1 1 13.9471 8.15794 2.9463 0.761458
277 1 1 12.6942 8.18251 1.42562 3.79824
648 1 1 12.9294 8.2065 3.64049 1.36621
985 1 1 10.4817 7.72612 1.86509 0.434944
610 1 1 12.0089 9.20592 2.25676 0.166007
488 1 1 14.4475 8.36277 6.62516 1.99904
5812 1 1 15.8985 6.3733 3.91243 1.7602
1537 1 1 15.7728 6.80922 2.87474 2.82166
960 1 1 16.039 6.8197 6.28963 0.280269
913 1 1 16.2208 8.08343 2.43088 0.607298
114 1 1 1.98093 9.16015 4.89107 6.37502
2239 1 1 4.25853 9.71046 5.90816 1.40656
959 1 1 2.04731 10.8668 3.18252 1.99844
996 1 1 1.8055 8.972 2.54095 0.578237
1863 1 1 5.07496 8.51334 2.9578 0.892611
667 1 1 1.77623 8.7428 6.20795 1.75378
1415 1 1 6.55583 7.74655 2.01602 6.28066
344 1 1 6.85186 8.60803 3.45616 1.06756
1475 1 1 8.11896 12.2032 3.18517 1.01264
1217 1 1 6.87069 7.01454 3.78304 1.92062
2874 1 1 7.43234 8.0995 4.20656 2.36779
1781 1 1 9.04807 9.32671 1.82077 2.26151
7573 1 1 10.2891 9.80989 3.69086 1.87292
183 1 1 11.3528 7.33187 2.44366 3.18048
7138 1 1 11.6252 12.676 3.9023 1.15543
1906 1 1 14.72 9.00568 2.65522 2.54791
2320 1 1 14.1454 11.5212 1.19433 4.63349
738 1 1 12.4849 9.21952 3.55468 0.427534
240 1 1 15.2807 7.95166 4.2769 3.2392
1942 1 1 16.3337 11.4394 7.37179 0.419093
6561 1 1 17.4128 10.7442 3.95806 0.832122
1113 1 1 0.439968 8.8835 5.1946 2.79677
1870 1 1 17.4752 8.24828 6.4834 0.0507684
336 1 1 17.8856 9.96514 2.29205 5.52018
1793 1 1 0.184956 10.4379 4.72384 0.226321
1272 1 1 3.13497 11.2078 4.89741 0.259614
1728 1 1 0.928723 12.1737 3.91167 1.121
369 1 1 4.22905 9.74302 1.62862 0.46689
243 1 1 3.06114 12.2559 5.13436 0.262492
2311 1 1 3.77856 10.0512 2.61658 1.44404
2980 1 1 6.95404 9.25697 4.40003 1.6326
970 1 1 4.27942 10.6012 5.1269 1.05322
1211 1 1 6.97625 10.3223 3.25384 0.80871
7538 1 1 9.69135 11.6222 3.53822 0.499838
7798 1 1 8.84722 11.1199 4.85119 0.462564
378 1 1 10.7134 12.2896 3.25133 0.686822
221 1 1 9.10632 12.9198 3.21505 0.166382
6896 1 1 8.64625 9.66065 5.34222 3.76576
1487 1 1 11.3024 9.58266 3.02744 0.237929
1100 1 1 11.7006 13.6684 4.08244 0.267589
1965 1 1 16.4059 11.4788 5.75018 1.34298
1072 1 1 14.4978 10.2951 3.54234 2.08733
6913 1 1 17.076 10.8706 4.97086 2.2893
186 1 1 14.022 11.2937 7.44357 1.93368
1130 1 1 18.6987 10.6709 6.42245 1.45404
2798 1 1 0.344646 10.0577 3.85988 3.00526
2151 1 1 16.4489 10.0268 4.0389 0.422571
6719 1 1 18.5803 7.22852 4.67352 0.106538
6563 1 1 17.1053 12.5577 3.22149 1.30461
2313 1 1 0.00248953 13.622 4.3183 0.106422
300 1 1 1.03629 11.175 3.56377 0.35097
203 1 1 3.31149 10.6576 3.87636 0.435813
2357 1 1 4.43718 12.5472 36.6505 1.30795
7474 1 1 3.63675 11.1026 2.8582 0.189015
163 1 1 6.62634 11.2986 3.29361 0.80777
765 1 1 4.53778 10.3788 3.82358 0.557808
1163 1 1 4.94512 12.8112 4.09755 1.33884
1912 1 1 8.40795 12.7002 5.80042 0.521706
201 1 1 11.6399 11.1655 4.18245 4.05141
627 1 1 14.8009 12.2149 2.29581 3.58248
7004 1 1 12.3611 12.3524 2.81332 1.61803
1438 1 1 12.7973 11.1365 4.16241 1.15212
1175 1 1 12.1733 13.3584 5.02667 0.701836
678 1 1 13.6351 11.9802 2.27192 0.339079
1250 1 1 13.4679 10.0356 3.06277 2.82603
1590 1 1 18.0943 14.2927 3.5372 0.573289
622 1 1 18.2534 10.6448 3.31238 1.04105
1184 1 1 16.1579 12.9013 4.09453 0.979189
1079 1 1 0.021736 11.5156 4.03848 0.141503
435 1 1 16.8434 13.776 4.83827 0.624844
7670 1 1 17.4607 12.7492 1.09407 0.278511
962 1 1 0.902499 12.9823 2.99637 1.35708
878 1 1 0.901809 14.0372 4.58523 2.46678
6531 1 1 3.20648 14.5696 3.1596 1.24095
7847 1 1 1.10377 14.3802 2.55498 1.49815
7212 1 1 0.23442 13.3025 5.76602 0.127584
1895 1 1 2.61288 12.3463 3.5681 0.991526
1561 1 1 3.90196 14.5866 1.81131 1.7195
7085 1 1 9.04978 11.9807 5.53707 2.44141
795 1 1 7.23443 14.0156 5.57024 0.63417
292 1 1 7.34227 11.4151 7.29771 1.16347
6536 1 1 7.47949 14.0126 2.80198 0.243767
381 1 1 9.82154 15.7025 2.98501 2.74311
342 1 1 9.36033 14.1435 4.73687 0.689092
2224 1 1 12.1286 13.339 2.99973 3.04653
1676 1 1 14.7649 12.2606 1.30097 1.31211
1986 1 1 17.7911 16.1871 4.85494 1.73268
7993 1 1 16.1154 12.1484 36.5928 0.665739
1024 1 1 16.5141 14.2035 2.84151 0.0555864
1514 1 1 16.1257 13.0592 3.09066 2.17928
7480 1 1 18.4625 13.1684 6.60923 3.19149
1116 1 1 2.68409 0.0637344 2.16262 1.66377
7863 1 1 3.01816 13.3561 3.70984 1.04491
1146 1 1 1.05187 15.81 36.7127 4.07538
1486 1 1 4.42511 16.4211 4.09559 0.210699
487 1 1 6.4712 14.5209 2.50284 0.902374
1337 1 1 4.89375 16.5052 3.04012 1.33511
1128 1 1 6.57393 15.224 4.72757 0.105567
961 1 1 9.26145 15.8243 1.72635 1.9846
7489 1 1 7.03371 15.6745 1.62992 0.527371
1505 1 1 8.27187 14.7038 3.95773 1.05334