ITEM: TIMESTEP
2500
ITEM: NUMBER OF ATOMS
8000
ITEM: BOX BOUNDS pp pp pp
0.0000000000000000e+00 1.8820720577620570e+01
0.0000000000000000e+00 1.8820720577620570e+01
0.0000000000000000e+00 3.7641441155241139e+01
ITEM: ATOMS id mass type x y z v_temp
351 1 1 0.855306 1.89669 2.08805 1.18174
1198 1 1 3.68598 0.395643 0.212715 1.48889
1116 1 1 3.15719 0.776427 1.31436 1.93313
6280 1 1 2.59906 1.34284 1.91909 2.11574
6076 1 1 4.58982 1.0378 37.1251 0.626913
7613 1 1 5.06026 18.1645 2.1139 0.681862
775 1 1 8.47501 2.28619 1.04891 1.60022
6363 1 1 6.00355 1.87954 1.70514 0.441746
175 1 1 7.55461 17.8917 0.171699 0.34118
934 1 1 8.22767 1.51384 37.3266 0.370213
1416 1 1 7.32683 16.8412 1.3498 1.22577
6582 1 1 11.5492 18.4102 2.59729 2.26855
1139 1 1 11.883 1.23364 0.352144 1.80517
7873 1 1 10.6796 18.1116 37.4987 0.329685
352 1 1 13.9421 18.4796 36.2378 1.51848
1377 1 1 14.6063 2.15198 1.74547 3.00032
7568 1 1 13.3173 18.4808 0.364835 0.883227
1186 1 1 16.0837 18.3082 2.83465 2.32137
1265 1 1 15.526 1.40272 0.211262 1.1671
126 1 1 15.4468 0.317489 0.474604 3.27135
791 1 1 17.8567 1.17957 0.649992 1.63682
1999 1 1 17.9183 17.3726 0.89827 0.465921
383 1 1 1.06667 2.54771 1.40084 0.64859
7930 1 1 18.6176 1.68445 1.34259 0.641417
6845 1 1 17.3755 2.25292 0.441375 2.05283
31 1 1 0.141748 2.62627 3.6527 0.387512
1739 1 1 1.92819 0.684019 1.19309 2.49048
7604 1 1 2.32417 1.39194 0.602337 0.434906
155 1 1 4.62247 18.8379 0.170297 0.468789
7785 1 1 4.72487 2.46986 1.81772 0.355917
1446 1 1 7.1074 1.66263 0.186257 0.178648
217 1 1 8.64284 3.62699 37.3929 2.23564
418 1 1 8.12619 3.07839 1.79364 0.776616
726 1 1 10.1656 2.98158 1.50935 1.35522
2348 1 1 10.992 2.35143 1.68595 0.550141
1333 1 1 11.6672 2.41627 0.266764 2.15038
515 1 1 12.567 1.86663 0.855091 0.597147
7745 1 1 12.8806 0.826735 0.408096 1.26614
1270 1 1 13.3391 2.06435 1.84453 0.426178
6850 1 1 14.0807 2.66478 0.580956 1.03088
1037 1 1 16.2765 2.47755 0.741434 3.4987
1315 1 1 17.8357 18.1647 37.0522 0.9649
6006 1 1 18.4665 3.93007 1.37814 1.58907
508 1 1 18.4078 2.32374 0.536342 2.81359
1045 1 1 0.288724 6.08677 1.93305 2.51735
875 1 1 1.77266 4.82969 36.5088 0.409819
7718 1 1 2.64146 4.21579 0.306821 2.28011
6152 1 1 5.12996 3.93228 1.09752 1.05742
1348 1 1 5.75128 3.05628 1.29346 2.27831
6026 1 1 4.26359 4.63118 2.37782 1.02628
1850 1 1 6.96368 3.47254 0.989986 0.66581
1381 1 1 9.94436 6.10913 0.313114 1.8258
7861 1 1 7.86331 3.96686 1.2729 0.245971
7032 1 1 11.5767 3.64245 1.11363 0.435862
1661 1 1 9.21439 2.73828 2.41694 0.0874693
7588 1 1 12.3188 4.76604 37.29 1.12641
6060 1 1 11.8939 3.78037 3.25065 0.301105
1806 1 1 14.804 3.71317 0.645488 3.96845
7155 1 1 12.544 3.87395 1.53017 4.46455
437 1 1 13.2537 3.8921 36.8335 1.35425
7301 1 1 14.6721 2.21823 37.3293 0.203597
2221 1 1 16.2792 3.30715 36.6418 8.02723
7468 1 1 14.2139 3.78805 1.78244 0.451687
5355 1 1 17.1023 3.21587 0.442648 0.5429
223 1 1 18.572 5.80317 0.377919 0.187988
2033 1 1 1.3351 3.31167 3.41578 1.63503
1401 1 1 0.835251 5.22306 35.7804 1.33283
7697 1 1 3.37603 5.56788 37.0106 0.200673
936 1 1 3.31122 5.20759 2.13105 0.897092
7904 1 1 3.29385 4.46072 37.099 0.404414
582 1 1 6.62145 4.37738 36.8536 0.236214
6922 1 1 9.12988 4.04475 0.543499 1.53287
7748 1 1 7.12834 4.50498 35.9634 0.553178
7387 1 1 8.0044 5.00522 0.954591 2.99556
6703 1 1 8.91969 3.18519 1.04589 0.480793
6551 1 1 10.778 4.40178 0.21069 1.5466
7408 1 1 11.1274 5.32101 36.871 0.85392
6044 1 1 13.2078 5.14858 0.240359 2.14378
271 1 1 13.5728 6.1282 2.43636 0.83433
7320 1 1 13.553 3.80558 35.0572 2.21111
7115 1 1 14.1796 4.32818 0.0776945 0.599698
1329 1 1 15.5354 4.94804 37.4913 0.545897
103 1 1 16.8165 5.01859 0.798184 1.88038
7091 1 1 15.9655 6.3385 37.0373 0.627952
7717 1 1 18.0937 9.07585 1.2825 0.857215
6161 1 1 1.28493 6.74051 36.6738 3.6735
137 1 1 17.0255 7.09659 1.58259 0.486349
7507 1 1 2.19828 6.74069 0.0996528 2.9453
1409 1 1 1.70013 7.10464 1.19608 0.37466
7942 1 1 1.02437 7.85223 0.972662 0.427793
6971 1 1 3.61836 7.56321 1.38125 0.47143
72 1 1 1.83747 7.90978 37.457 1.46681
190 1 1 5.11573 7.08154 37.2493 1.48917
6605 1 1 2.55188 7.00346 1.88966 0.964253
7215 1 1 3.84601 5.08892 4.04119 0.215087
294 1 1 7.89828 7.05382 0.473555 1.77493
7944 1 1 3.21999 6.25665 3.08226 2.39387
5747 1 1 6.46242 3.75864 2.19891 1.35861
429 1 1 8.93964 7.69728 37.243 4.50586
7094 1 1 10.3686 7.33565 2.11036 0.226603
21 1 1 9.42139 6.04484 36.3254 1.14417
61 1 1 10.4296 6.21742 1.31484 0.892894
6619 1 1 13.5 7.22877 0.780606 0.709751
550 1 1 11.3331 5.19333 2.86727 1.55051
533 1 1 9.79287 5.47185 1.72647 3.80348
1664 1 1 14.6537 6.53531 0.605484 0.232813
486 1 1 15.1442 7.02294 2.86473 0.880137
591 1 1 14.1171 7.02785 2.63184 2.17772
164 1 1 13.8167 3.43183 0.0487871 2.69251
762 1 1 17.0841 7.93771 37.029 0.333316
6476 1 1 16.1472 6.07965 0.679829 4.39506
5857 1 1 17.2962 6.62955 37.2475 1.0454
354 1 1 6.26699 5.25425 36.5053 1.65218
6987 1 1 3.17287 6.32254 0.184648 2.52011
6874 1 1 6.70375 7.94558 1.68861 1.59477
1415 1 1 5.08622 6.34568 2.23985 0.837865
615 1 1 7.38002 8.91838 1.81286 1.13627
7740 1 1 8.54014 9.64517 37.4102 3.1255
7958 1 1 11.2452 6.75823 37.365 1.58508
973 1 1 10.7589 8.17107 2.30539 0.597921
6463 1 1 10.3611 7.59902 37.1506 2.12711
91 1 1 14.6675 7.67271 0.64693 1.60922
1193 1 1 13.3097 7.51937 1.80284 1.27127
276 1 1 16.1437 7.79175 37.4187 0.370705
5649 1 1 18.6957 9.32048 36.9288 1.27943
371 1 1 16.7468 7.06661 0.519202 2.50205
1360 1 1 3.10736 8.86304 37.2453 2.91824
6196 1 1 1.69358 9.23453 2.76532 2.43283
6762 1 1 1.212 11.0927 2.15029 0.0863729
6126 1 1 4.98825 10.5462 37.1996 1.10817
834 1 1 3.12493 11.1858 1.5225 0.355145
7326 1 1 5.65321 8.58629 1.01822 3.3167
1681 1 1 4.26496 8.74622 1.06612 0.856885
6584 1 1 7.43541 10.1885 0.367028 0.111498
7065 1 1 6.62822 8.56679 0.158729 0.878081
7943 1 1 9.57127 10.6593 0.9169 0.412221
1781 1 1 6.99191 8.23684 2.85373 0.715102
6497 1 1 9.70521 9.39855 1.74235 0.6386
7866 1 1 11.53 9.78694 0.220767 1.91793
6699 1 1 12.3365 9.00701 37.1727 0.0681248
574 1 1 11.9371 10.4176 1.37571 3.36439
7266 1 1 12.0443 9.04364 0.764579 2.67463
7983 1 1 14.4233 8.56344 1.17585 0.794168
7021 1 1 16.7029 8.15265 0.430344 0.807813
6599 1 1 18.2605 10.1822 35.7642 1.61465
6159 1 1 17.5503 9.24495 2.33084 3.40458
86 1 1 1.35315 9.65269 37.2601 3.49786
7621 1 1 4.38445 11.5466 1.9613 2.71877
7967 1 1 0.439912 10.2097 0.474181 3.31393
7047 1 1 3.4305 10.1655 0.886223 0.893645
6656 1 1 4.17889 11.3267 35.6963 1.45705
955 1 1 6.35966 10.0671 0.97671 1.12278
6842 1 1 8.15034 12.1201 1.26592 4.36286
7002 1 1 9.67039 10.3422 37.3102 1.13464
1790 1 1 7.67182 11.5129 0.377383 4.55297
6380 1 1 5.09475 9.14656 35.2609 0.725366
6933 1 1 7.80337 8.0835 1.1871 0.0806308
721 1 1 10.4072 9.02501 0.564389 1.28906
6752 1 1 10.9617 11.7264 0.177807 4.69172
6527 1 1 12.0233 12.1711 37.5874 3.84442
38 1 1 12.7059 11.179 1.83534 2.64036
678 1 1 10.6726 10.4491 37.4665 1.16261
423 1 1 12.7976 9.88861 2.06283 1.34149
1074 1 1 14.3115 9.55459 0.181513 0.123352
1068 1 1 15.6945 12.2926 35.8987 2.56591
969 1 1 15.5433 10.9574 0.325028 0.136388
1349 1 1 17.4378 10.2883 0.809837 2.25587
634 1 1 0.573253 12.2845 36.4781 0.71166
7772 1 1 18.4035 11.7272 0.947467 1.76885
7836 1 1 0.70348 13.6542 35.6412 1.89948
7855 1 1 0.716055 13.0511 1.25764 0.770781
549 1 1 2.41178 12.3829 37.5948 1.53252
773 1 1 1.62236 12.6105 1.79304 0.0266372
7056 1 1 2.58669 12.9162 2.07529 0.162964
8000 1 1 5.94403 11.3441 1.70545 0.853271
7854 1 1 3.80083 9.22675 0.287124 0.436901
1432 1 1 7.39808 13.3471 1.4734 0.964234
829 1 1 7.41928 13.5313 37.2343 2.2913
10 1 1 8.8781 11.3644 0.084694 0.612194
6399 1 1 9.63424 14.9382 0.522642 0.330577
6939 1 1 10.8148 12.9072 36.8512 1.82358
1103 1 1 11.4996 14.93 1.15381 1.82037
236 1 1 9.88487 14.1128 36.4809 3.44973
7548 1 1 15.8058 11.5405 37.1241 0.609442
2320 1 1 11.6272 11.9218 1.94135 2.65139
6590 1 1 14.9778 13.1224 1.41922 2.24969
7993 1 1 15.0797 13.3047 36.0328 1.60615
2353 1 1 15.2157 12.1045 1.37148 3.06188
7670 1 1 17.0642 12.8115 2.07498 1.36526
1676 1 1 17.6476 11.7987 2.81298 0.658127
1567 1 1 18.1649 13.0324 37.0031 0.438481
7947 1 1 1.61383 14.7318 2.24736 2.38222
962 1 1 18.6082 14.3511 2.12338 0.487309
4804 1 1 2.03148 14.0546 3.05257 2.53268
7957 1 1 1.67677 15.6208 3.94946 0.507399
1350 1 1 3.51768 12.5943 36.5598 0.228434
7217 1 1 4.18301 15.6118 37.6148 2.11227
6232 1 1 3.33159 12.1975 1.37959 0.555246
287 1 1 4.92309 13.0222 36.4223 0.647268
7248 1 1 5.27438 15.5296 1.18292 0.653106
239 1 1 8.30848 15.0646 1.379 3.34021
1144 1 1 10.3564 14.905 37.4165 1.62162
1295 1 1 8.93962 14.4506 2.43569 1.29805
976 1 1 13.5759 12.6371 1.85161 0.577554
7680 1 1 12.1566 15.3569 37.6106 0.395469
297 1 1 15.7586 12.5493 36.7873 1.4355
7052 1 1 14.8064 13.9644 2.03576 0.710479
7853 1 1 0.154401 13.601 0.594888 0.113636
2409 1 1 18.5022 14.5853 1.14458 3.30216
7338 1 1 16.0001 12.6471 1.75742 1.51985
1529 1 1 16.7288 16.5699 1.31836 0.175008
7926 1 1 1.53684 15.7031 36.8195 0.344956
686 1 1 2.05445 16.9498 2.72501 0.731566
7101 1 1 1.2865 16.3958 37.4484 5.21867
7454 1 1 2.79133 15.6226 36.0601 0.687764
558 1 1 3.81165 14.6458 2.67864 2.39972
1481 1 1 4.66868 17.1306 0.193137 0.681063
844 1 1 5.16512 14.1342 0.818077 0.3751
1210 1 1 7.38933 14.2758 0.658566 2.54623
7891 1 1 10.7306 15.7529 0.755264 3.30619
7180 1 1 10.5483 14.524 2.27572 5.68064
7543 1 1 13.5986 15.0465 37.5123 6.06455
389 1 1 14.5695 15.1529 0.651676 1.73244
432 1 1 14.7272 15.3555 2.80662 0.292008
653 1 1 15.6944 16.5714 0.598623 0.988721
393 1 1 17.1219 14.8381 36.4439 4.75786
7390 1 1 16.6813 16.6464 36.2722 4.84537
1406 1 1 17.682 15.8158 1.90567 1.90344
579 1 1 16.7809 16.247 37.4597 0.584028
7451 1 1 2.55023 17.7269 1.71411 1.53364
1569 1 1 1.39216 0.433932 35.1832 1.23099
757 1 1 1.78614 16.8891 1.01949 3.95355
7569 1 1 4.38182 14.8967 36.7984 1.84302
1729 1 1 5.00698 14.4392 2.13777 2.61453
605 1 1 6.51921 17.6166 1.52609 0.881416
1995 1 1 6.50429 16.4941 0.707825 0.199156
7303 1 1 6.81185 15.7849 1.53344 1.00759
1582 1 1 7.05072 17.2448 36.6721 1.02171
13 1 1 7.33941 0.209097 0.391683 0.0301183
1206 1 1 10.1429 17.5841 36.8172 0.343007
6851 1 1 8.49777 16.1831 0.926496 1.31624
7452 1 1 10.8361 17.4451 1.94838 1.56353
7149 1 1 11.0947 17.8693 0.848724 1.71178
433 1 1 11.2487 15.3555 2.28958 4.78795
7341 1 1 14.5965 16.5394 35.9844 1.28834
1110 1 1 17.9281 16.7822 3.49503 1.70318
356 1 1 14.5369 16.0935 36.9858 1.21636
629 1 1 15.4237 14.6943 0.142246 0.559371
1042 1 1 17.7169 16.9762 1.82759 1.25787
5999 1 1 17.724 17.4735 35.9933 2.88972
7892 1 1 0.510749 17.1984 36.4934 5.53326
129 1 1 2.65463 17.5656 37.1092 1.46404
6688 1 1 3.39599 17.6276 1.16257 2.03263
692 1 1 4.09277 18.5248 0.966728 1.167
6713 1 1 1.96584 18.4342 0.280711 0.385227
7404 1 1 3.1695 16.09 0.643459 0.952819
835 1 1 4.91592 15.595 36.1549 2.22947
6835 1 1 5.62096 16.8765 37.5601 0.481474
566 1 1 7.10756 18.345 1.03728 0.233638
6914 1 1 8.80009 17.527 37.4367 1.16528
5985 1 1 10.828 16.1387 37.2371 0.937056
472 1 1 13.2728 17.1684 2.60913 0.518788
7672 1 1 12.9961 17.0898 37.4941 0.802384
2287 1 1 18.1983 -0.0181496 36.2711 2.12103
6092 1 1 13.5963 16.0843 0.462624 3.0172
7106 1 1 18.7868 17.8059 35.9541 1.35051
7202 1 1 16.687 1.52357 0.153723 4.52301
2662 1 1 18.2252 16.6818 36.4548 3.20992
7261 1 1 0.475655 15.3222 36.7707 0.563265
194 1 1 18.4514 1.86417 2.60181 0.518883
954 1 1 1.42899 18.2171 1.19681 3.38571
643 1 1 2.24048 2.95278 1.8708 2.62879
7818 1 1 5.81003 0.329469 2.44832 0.703813
3146 1 1 4.3678 0.862396 0.955841 1.86267
1279 1 1 2.644 0.123605 1.91325 1.05334
7166 1 1 5.68341 0.136513 0.872104 3.06557
1140 1 1 6.54666 0.46629 1.29749 1.99012
895 1 1 8.09604 1.10701 0.947109 2.1232
700 1 1 11.757 0.454683 3.10675 0.858247
6986 1 1 9.07062 17.6337 1.02611 0.469511
1708 1 1 10.036 16.2176 3.57648 0.370656
505 1 1 13.8742 1.64767 1.02971 0.45507
2106 1 1 12.4058 17.795 0.257975 1.14516
640 1 1 11.4582 16.8316 3.44469 2.30602
7440 1 1 15.5901 1.18132 1.69863 1.96116
1928 1 1 17.333 17.9187 1.62678 0.411653
1672 1 1 17.8376 0.552846 1.64538 2.98179
7992 1 1 1.67868 4.05794 2.45373 1.29965
7938 1 1 1.02178 4.52756 0.603467 0.793567
656 1 1 4.09031 2.86218 2.64164 0.917524
489 1 1 3.45931 2.70563 1.80473 0.587502
1309 1 1 5.83143 2.01738 2.75678 2.66828
6942 1 1 7.21204 0.899854 37.0536 1.31812
7535 1 1 7.74968 1.67467 3.29661 0.720154
7332 1 1 9.99187 2.25925 0.286346 0.214545
6477 1 1 8.83041 1.98508 3.23645 1.03462
94 1 1 11.4524 1.5679 2.55858 0.756524
6659 1 1 9.82376 1.86717 2.14504 5.53123
82 1 1 8.0412 4.38246 2.63284 0.463877
1993 1 1 9.85083 17.7273 1.74848 2.52093
511 1 1 13.1185 18.5727 2.52684 0.137258
1339 1 1 11.8199 1.48179 1.44693 1.23431
122 1 1 10.9979 0.264046 1.81103 3.06547
3071 1 1 12.9618 3.62146 2.6068 0.140033
1183 1 1 14.6586 0.754699 1.60102 0.311507
1591 1 1 16.6063 0.779544 2.37981 0.730771
149 1 1 16.8555 1.49688 1.36402 3.17348
1020 1 1 15.571 2.66804 0.108908 2.98546
7088 1 1 17.3327 1.29747 2.75146 1.17818
7841 1 1 2.11175 4.11332 3.52146 0.208519
366 1 1 2.56063 4.82785 2.76591 0.669541
406 1 1 2.57303 4.36504 1.48402 0.641047
509 1 1 1.07297 4.77826 3.83037 1.80419
2824 1 1 2.8588 3.35946 0.942547 1.22985
3 1 1 6.16639 4.81659 2.27239 0.329661
1237 1 1 4.73247 3.72971 3.10551 2.1812
7503 1 1 4.87811 4.97334 0.616415 0.777208
7663 1 1 6.35847 4.16994 4.44087 3.31936
7653 1 1 9.17935 4.13479 1.96916 2.07875
661 1 1 6.99458 2.79503 1.92853 1.27938
56 1 1 6.76921 1.53803 2.60967 0.269565
570 1 1 9.30119 4.71386 3.30383 2.13901
3337 1 1 12.4356 2.87494 1.09401 1.05204
1648 1 1 12.0471 3.34531 2.37091 1.77968
980 1 1 12.282 0.932736 2.26885 4.47379
1239 1 1 13.5286 4.78478 1.41613 1.73727
6241 1 1 15.4585 2.77397 1.38644 1.9568
651 1 1 16.6305 3.77037 3.28716 2.70577
115 1 1 17.9941 3.60113 2.36122 0.498042
7937 1 1 0.605837 2.80179 4.56594 1.81294
314 1 1 18.3554 4.51298 2.63585 0.118407
7284 1 1 0.0765747 5.04689 1.37288 0.638162
7631 1 1 4.22246 3.4788 5.06679 1.87671
68 1 1 1.68134 6.0781 1.15563 1.29217
7660 1 1 3.10396 4.08119 3.72615 0.166951
1714 1 1 5.41691 5.84186 0.601022 2.58526
7643 1 1 8.73338 5.78973 1.22397 1.29558
7644 1 1 11.03 3.5129 2.07869 2.13922
553 1 1 10.7976 7.06744 3.24738 0.187276
7348 1 1 11.6931 4.99886 1.59735 1.33976
588 1 1 13.8445 4.1761 4.00019 1.62319
1826 1 1 12.8615 4.88384 2.86352 0.575595
1833 1 1 13.254 7.67379 2.90887 0.228576
469 1 1 14.6213 5.86444 1.78017 2.2735
7358 1 1 16.4553 4.9211 1.80088 0.257031
802 1 1 17.9717 6.19476 2.53534 0.942451
7659 1 1 17.0292 5.83043 2.01487 1.2813
3092 1 1 17.3306 4.95384 2.91253 1.1377
1287 1 1 17.446 7.6879 5.44867 1.49327
5817 1 1 2.86143 7.4411 2.91304 1.45543
7242 1 1 1.32718 7.01335 3.73392 0.342897
7803 1 1 1.83571 6.19561 2.31481 0.842768
7738 1 1 5.01875 4.98943 1.76596 2.10966
1596 1 1 1.85297 7.86447 2.39162 3.11457
1427 1 1 2.69112 6.28422 1.0854 1.39129
214 1 1 8.03941 6.45818 2.34229 3.02745
1076 1 1 9.39503 4.84885 0.933539 1.98298
1369 1 1 8.15701 4.77292 3.56363 0.55863
117 1 1 8.07388 7.40563 1.94622 1.53183
7625 1 1 10.3113 4.29469 1.2671 1.21413
7972 1 1 13.5337 5.52083 4.44234 1.72704
140 1 1 12.4872 5.99106 2.55246 1.42527
7719 1 1 13.4531 6.06489 1.19997 0.77623
7185 1 1 14.3587 5.1359 3.64007 0.470681
1537 1 1 15.1678 6.82344 1.41451 0.825354
7544 1 1 15.1673 5.16451 2.92723 0.362725
6995 1 1 0.975523 9.91673 4.77555 0.573957
6975 1 1 4.03593 10.0346 3.00347 0.617175
1562 1 1 0.515132 9.3769 0.806264 2.82541
926 1 1 0.725484 8.4045 2.29272 1.34319
7472 1 1 4.49072 8.69444 2.83461 0.448649
925 1 1 4.43882 7.64044 2.19186 0.423425
529 1 1 4.75928 8.18885 0.492592 0.813953
1547 1 1 4.91295 10.8504 1.39305 1.38309
1224 1 1 7.46474 6.36876 1.25226 0.24773
1194 1 1 8.02442 8.60224 2.7547 0.575714
1107 1 1 9.69411 6.87455 3.24859 0.596145
6566 1 1 8.96319 6.96616 2.16669 1.15093
519 1 1 12.6976 6.14883 4.04034 1.33022
2244 1 1 11.6082 7.5876 2.69192 3.12434
277 1 1 10.8929 7.28588 1.14017 0.531558
5690 1 1 12.0214 7.46596 1.66091 2.32296
543 1 1 14.3068 8.27911 2.36043 3.54919
102 1 1 16.109 7.98745 2.96953 0.878792
913 1 1 16.0168 7.83392 1.10971 0.087933
669 1 1 16.6072 8.78455 2.07697 1.39582
6675 1 1 18.4434 8.50372 2.16262 0.0861186
107 1 1 0.20576 8.55617 4.44841 0.664575
1036 1 1 1.80658 11.2728 0.650331 2.98709
178 1 1 2.61173 11.2711 3.84536 0.267782
1863 1 1 5.47087 9.76638 1.4491 3.15045
369 1 1 3.19665 8.76855 1.36809 0.567232
2311 1 1 5.39265 9.1467 4.35966 1.0255
1046 1 1 6.7714 10.6707 2.03792 0.629464
238 1 1 8.07509 10.9546 1.05939 1.97649
985 1 1 8.88077 7.80726 2.89341 3.57612
7538 1 1 9.03731 11.1325 4.12179 2.20129
341 1 1 11.3121 7.61995 4.08251 3.3283
7156 1 1 11.0446 9.70484 2.17493 2.65108
610 1 1 10.9297 8.9857 1.42618 0.143833
1487 1 1 10.8661 10.5552 2.83103 1.53159
7945 1 1 15.5198 8.66933 0.703741 0.538677
1906 1 1 15.5831 8.84485 2.33457 0.807864
79 1 1 16.8256 9.80909 2.75748 0.59478
247 1 1 2.27192 9.20139 1.87009 4.88321
7851 1 1 18.6206 13.0092 1.62847 0.829303
230 1 1 0.824797 10.2219 1.96522 4.41636
300 1 1 1.24695 10.8104 3.89214 1.48617
7966 1 1 2.42932 10.1107 1.1653 1.14474
445 1 1 2.8869 12.3717 4.1983 2.17509
765 1 1 3.24523 9.90272 2.17139 0.269609
340 1 1 4.31151 9.90476 1.67768 1.5317
1264 1 1 4.23398 10.4627 4.18953 1.06194
481 1 1 5.71422 11.0141 2.63144 1.35881
1389 1 1 5.03751 11.6139 4.66611 0.376099
7335 1 1 8.19377 9.57454 1.88358 2.05035
4198 1 1 10.0595 10.0702 3.89467 0.656659
1069 1 1 12.0327 9.15534 2.07479 1.71937
2814 1 1 9.10206 10.6242 3.0854 1.41069
1385 1 1 9.70838 10.9056 2.3792 0.422717
6693 1 1 11.9111 10.1236 2.73731 1.09258
386 1 1 10.8207 11.2836 2.00755 2.14074
7913 1 1 15.1782 9.79065 1.10136 3.09092
374 1 1 13.1164 9.46709 3.01177 0.737886
818 1 1 13.9528 11.3876 1.96141 0.427986
1234 1 1 17.5729 11.9413 5.15223 0.0106338
7800 1 1 16.4111 9.65447 0.881609 2.21589
336 1 1 18.1523 13.0318 0.706758 0.141146
7089 1 1 18.1687 10.6523 3.97924 0.766566
259 1 1 1.93659 11.7997 3.29657 0.360669
245 1 1 1.21118 13.3443 3.67539 1.17349
7811 1 1 3.57278 11.4204 3.48991 0.778261
584 1 1 5.32838 12.1765 3.8531 1.72258
704 1 1 5.09819 11.849 2.72472 0.480363
769 1 1 8.32119 13.8519 1.55758 1.14823
6646 1 1 2.27401 12.8655 2.97697 1.59678
815 1 1 6.05515 14.8785 1.11513 0.21872
1542 1 1 9.21447 12.9379 1.36869 0.998195
7704 1 1 9.41373 12.1358 2.52004 2.22454
1475 1 1 8.3767 13.2879 2.72626 1.06812
7459 1 1 7.81328 11.3612 3.53018 0.684462
563 1 1 8.92163 11.1871 1.67438 1.8613
734 1 1 9.66094 13.0464 3.82528 1.19636
6723 1 1 11.0289 12.5958 0.88035 3.06371
7004 1 1 10.594 10.1153 1.21868 1.66709
7834 1 1 12.3336 12.6282 2.38533 0.318554
2150 1 1 11.3278 11.1225 0.922498 2.18895
627 1 1 16.198 12.1895 2.71945 0.96192
1514 1 1 15.4267 13.1561 0.0691368 0.930176
712 1 1 14.5526 13.1157 6.92594 0.570224
234 1 1 17.3678 14.1734 2.17987 0.61781
1082 1 1 0.611146 11.8179 1.56551 0.585058
1971 1 1 1.34333 12.6459 2.71989 4.13896
6459 1 1 3.53089 13.2138 3.4642 2.10598
7060 1 1 3.62862 13.2832 2.06373 1.75754
6600 1 1 6.2191 12.5345 2.67466 1.07455
487 1 1 7.56737 14.5908 2.11729 0.262215
365 1 1 7.00531 14.782 3.14957 2.73716
53 1 1 7.41608 14.5264 4.10397 1.9906
1165 1 1 10.0929 12.8575 1.00806 2.76439
7984 1 1 9.85883 14.2802 1.27394 3.02082
286 1 1 10.7422 14.2373 0.412234 0.280669
416 1 1 10.9269 13.9495 1.36413 2.35489
6750 1 1 14.9067 13.4971 2.99211 1.3582
1187 1 1 13.2614 12.0013 1.0349 0.468725
1904 1 1 13.9036 14.1277 2.61372 0.935014
7444 1 1 16.2755 14.5737 2.17408 0.36769
375 1 1 16.1201 15.6423 0.343809 0.730905
1282 1 1 1.76377 15.5286 0.4625 0.0984691
1561 1 1 3.77483 16.118 1.62354 1.84311
785 1 1 3.95921 15.182 0.988329 1.48382
504 1 1 4.79677 16.4605 1.60527 3.00207
1527 1 1 5.61414 17.0947 0.882397 1.87263
2046 1 1 7.19292 16.969 4.23722 0.29714
7489 1 1 6.12333 14.9797 2.12621 4.7588
885 1 1 5.66752 14.2374 2.84077 0.562494
902 1 1 6.04131 16.8123 4.54809 0.820935
1940 1 1 7.55605 15.8707 3.99468 3.2813
2224 1 1 12.6484 17.0126 1.7767 1.53206
961 1 1 7.57928 15.7253 0.723335 5.57369
7893 1 1 10.6061 15.3154 3.14839 0.0646868
7757 1 1 15.387 14.9556 1.22291 0.723315
93 1 1 15.3768 14.5417 3.15005 2.22735
1077 1 1 15.9684 13.4884 3.01999 0.326827
1614 1 1 18.1644 14.6778 2.96612 2.7024
7951 1 1 0.0651986 17.9571 0.430035 0.827169
7116 1 1 0.00255855 16.7663 2.72435 2.09306
439 1 1 2.53559 13.6836 1.07193 3.01665
1634 1 1 2.74548 16.4315 1.58729 1.30447
7934 1 1 3.3519 17.4993 2.28408 0.30877
763 1 1 6.5374 17.1245 2.3996 2.7661
7620 1 1 10.1188 15.3456 1.51927 0.623948
1196 1 1 10.4506 18.614 1.09179 1.46798
338 1 1 10.5801 16.7932 4.51736 0.981826
1167 1 1 12.1611 16.0633 2.71008 1.91456
7163 1 1 13.3637 15.7637 1.54248 0.792899
820 1 1 13.6708 15.1652 3.3127 7.11794
1308 1 1 14.3864 18.0676 2.02173 4.51941
1479 1 1 14.4353 16.2596 2.41364 0.779921
1638 1 1 0.279821 16.5602 37.2601 0.88075
328 1 1 1.65352 0.808795 0.0799394 1.16254
859 1 1 0.0570157 1.08996 0.0585653 1.33
611 1 1 2.45353 17.6296 4.35905 1.25533
6866 1 1 7.40413 1.87836 1.78957 0.328466
687 1 1 5.17002 15.7448 3.1025 1.53979
7300 1 1 7.04824 18.4143 2.60952 1.29676
1328 1 1 6.23632 17.353 3.68992 0.19447
96 1 1 7.7113 17.623 1.94168 0.0412309
6079 1 1 8.11174 18.5217 1.22017 1.20092
173 1 1 9.16957 0.443272 36.4609 0.191534
7950 1 1 9.63445 17.0435 37.4446 0.521381
696 1 1 9.78598 17.4123 4.19715 0.122136
1616 1 1 10.7875 18.0592 3.64397 1.23814
20 1 1 12.9172 15.2222 0.760125 2.06204
1588 1 1 12.8642 0.611533 1.56 0.898261
6872 1 1 15.3334 16.1268 1.64635 0.897556
881 1 1 17.094 15.9921 2.94815 2.26388
1269 1 1 17.5656 17.976 2.91268 1.01745
7497 1 1 16.3352 18.1817 1.14934 0.742789
7744 1 1 17.0157 0.423715 0.8321 0.0649289
1607 1 1 0.0558662 18.3719 3.65885 0.301103
18 1 1 17.8373 18.5537 3.75179 3.88785
2026 1 1 1.74382 1.78945 2.47537 0.168393
547 1 1 3.60292 0.640463 2.48053 0.580747
1327 1 1 3.94357 18.6433 4.67131 1.24303
633 1 1 4.35071 2.13784 3.95618 0.299224
1738 1 1 3.59998 1.58502 4.52701 0.148774
2126 1 1 7.45561 18.1166 4.11557 0.430758
7982 1 1 7.92751 0.293809 2.84379 1.02637
1168 1 1 9.01963 0.339546 3.31628 0.61146
497 1 1 7.65964 0.835926 1.82582 1.75624
1579 1 1 10.8254 17.7108 4.68929 0.825021
7150 1 1 9.40521 0.751365 4.5359 0.672464
7821 1 1 11.9604 18.2832 3.6507 0.836002
7669 1 1 13.1326 18.3389 4.38603 0.891477
7980 1 1 13.9096 17.6273 4.8952 0.860979
2270 1 1 12.1751 1.62355 4.11197 2.55961
430 1 1 14.8643 1.15791 4.36821 0.787894
1413 1 1 17.5809 1.57744 4.47078 1.82915
867 1 1 15.7899 1.75497 5.49334 1.89543
7028 1 1 15.6891 1.14761 3.72058 1.03384
853 1 1 16.7373 2.46764 3.66397 2.61936
1443 1 1 0.708864 1.5962 3.12944 0.830092
879 1 1 0.874918 0.605611 3.70027 0.528927
2030 1 1 3.00653 2.04012 2.73403 0.54834
109 1 1 2.63633 2.32117 4.02746 0.412363
7251 1 1 2.22364 3.36559 4.23943 0.83575
915 1 1 3.4587 3.07982 3.39485 0.285423
1543 1 1 6.77587 2.53099 3.0471 3.68725
1322 1 1 4.31657 3.981 4.12485 2.48595
7989 1 1 5.40373 3.02352 3.47611 0.593249
454 1 1 8.72243 1.67544 4.93521 0.845178
1466 1 1 9.27013 1.08367 2.68375 1.06831
824 1 1 9.86797 1.19565 3.61376 0.361275
1213 1 1 15.6086 1.99212 2.89739 0.192643
906 1 1 10.0964 18.6063 3.06762 3.01831
409 1 1 13.3304 2.42848 2.7749 1.88164
2075 1 1 12.7554 0.657796 4.24664 2.60759
1473 1 1 14.4029 0.0469138 4.09649 5.94818
1044 1 1 12.2584 2.06724 5.38343 0.050973
1223 1 1 15.8704 3.05012 2.85623 0.756479
387 1 1 14.0939 1.9648 3.68141 0.141072
7601 1 1 17.3049 3.20949 4.13403 1.84092
206 1 1 1.62708 0.709093 2.68858 0.631849
148 1 1 1.29586 1.37511 5.01852 1.54325
874 1 1 17.8071 2.12992 3.52095 0.101239
7280 1 1 1.62921 3.455 5.24673 1.11226
1374 1 1 0.513469 3.89466 3.84691 0.635188
6648 1 1 3.07571 4.80627 6.22563 0.760707
774 1 1 1.48023 4.76261 5.81121 0.397098
7123 1 1 4.34404 3.07025 0.995215 0.0766905
2917 1 1 2.44618 3.08204 2.97551 1.20511
1365 1 1 3.26163 4.05858 2.56809 0.588774
7921 1 1 5.15653 4.42545 4.56653 1.59967
7685 1 1 4.71952 5.17592 3.52909 1.80625
1488 1 1 6.3968 3.0096 4.06669 3.43296
2177 1 1 8.62986 1.68881 1.9376 0.699019
1208 1 1 6.93687 2.99261 4.94686 1.41732
544 1 1 10.3476 2.15154 2.8739 3.0168
623 1 1 11.3036 1.40363 3.73086 1.53723
7010 1 1 11.967 3.143 4.06296 4.39736
446 1 1 12.8441 3.72914 3.8886 2.37209
2139 1 1 14.9246 4.01831 3.2978 0.599062
2867 1 1 13.4151 2.04211 5.13788 1.831
1539 1 1 15.4277 2.08281 4.26559 2.81485
1422 1 1 16.7053 3.82806 5.36892 2.14699
7914 1 1 15.1803 2.60493 5.27354 0.132757
828 1 1 14.346 3.0075 4.16851 2.71709
982 1 1 18.066 3.09033 3.4738 1.52261
1041 1 1 17.2806 2.76902 2.69463 1.46825
47 1 1 18.324 5.17444 5.37017 0.374721
1659 1 1 0.600244 5.52936 5.4316 0.193398
15 1 1 1.19533 5.81074 4.17942 0.889478
548 1 1 2.09366 6.61199 6.93119 2.13013
7924 1 1 4.81776 4.93782 5.74347 1.95817
125 1 1 6.63344 5.5076 1.39842 1.79962
1723 1 1 4.69689 5.89105 1.29606 1.69169
98 1 1 8.04811 5.22282 4.96216 1.09507
2318 1 1 7.40395 6.018 3.35415 1.32647
796 1 1 10.2483 4.96414 2.9622 1.88365
6136 1 1 8.3737 2.98617 2.92081 0.844271
7666 1 1 11.1145 2.8992 3.58734 1.56166
183 1 1 9.83211 3.93284 2.73323 1.14994
1203 1 1 15.0974 4.56137 4.1497 1.30797
2017 1 1 12.9129 8.61468 3.83926 1.71749
7273 1 1 15.9202 4.50625 0.942956 0.141793
7998 1 1 15.9959 3.85461 4.47271 0.551929
75 1 1 18.8028 3.68296 4.68988 0.00874832
6396 1 1 0.572642 5.72599 3.14041 0.326596
1002 1 1 1.903 5.14726 3.47474 0.480079
6848 1 1 2.37605 8.17781 3.55712 1.51611
1883 1 1 4.61797 5.35872 4.77615 1.22118
7879 1 1 4.36957 5.73935 2.72366 0.286061
1717 1 1 4.05136 7.27835 3.32355 1.5849
6767 1 1 6.0472 7.35063 2.6554 0.604445
1864 1 1 3.7357 6.3309 2.07317 3.52331
131 1 1 6.06673 6.98586 4.75396 2.75192
188 1 1 7.28204 5.26444 2.4659 1.18737
1217 1 1 7.13924 7.35602 4.43874 1.17707
7782 1 1 8.99847 5.59138 4.73414 1.0418
564 1 1 11.4107 6.42381 1.91687 0.754529
6538 1 1 11.2209 6.5917 4.29386 0.389776
1927 1 1 11.3931 5.84429 3.71272 1.25946
1051 1 1 15.5238 6.88238 4.11704 2.5883
7611 1 1 14.1504 7.73796 4.39192 1.97913
285 1 1 13.4175 5.88651 3.44267 0.266851
5812 1 1 15.8196 4.2491 2.69695 0.212137
108 1 1 14.625 6.00656 2.92603 1.54691
602 1 1 15.4736 5.80548 3.7687 1.34382
1338 1 1 18.2676 7.14871 3.09355 1.54404
928 1 1 17.8222 6.14252 4.64212 1.29855
1399 1 1 1.03369 6.81406 2.20132 0.92062
2747 1 1 0.483173 7.63305 3.79265 0.639907
996 1 1 2.16855 10.5205 4.17835 0.814035
357 1 1 3.48479 9.09958 3.95063 0.462378
626 1 1 3.57915 8.12319 4.02012 0.9393
983 1 1 5.99823 9.03405 3.34156 2.20656
568 1 1 7.34707 7.03143 3.10373 1.23999
344 1 1 6.78242 8.29493 4.37136 0.632046
2980 1 1 8.1695 7.39452 4.413 1.22919
7322 1 1 8.51201 6.51428 3.20701 0.551649
1784 1 1 9.82919 6.39851 4.64137 0.340608
648 1 1 11.7308 8.54387 5.62852 2.52605
738 1 1 13.0379 8.36653 1.22157 1.15932
1802 1 1 13.3118 8.53579 2.3727 0.780902
1513 1 1 15.1069 9.09554 5.46487 0.616415
596 1 1 15.2939 8.5602 3.37711 1.07336
235 1 1 15.9088 6.95176 2.26031 1.1515
240 1 1 17.5471 7.60796 4.2123 2.97753
6875 1 1 0.0608867 7.60003 1.27313 0.14843
2798 1 1 1.01232 9.71499 3.59654 1.42763
134 1 1 2.03635 9.22305 3.88791 1.66479
440 1 1 2.9557 9.96922 3.35366 2.39098
1417 1 1 4.32568 8.60417 5.89283 0.164237
1001 1 1 6.32036 10.1007 2.79762 2.88504
604 1 1 5.99239 8.49894 2.43904 3.76987
1211 1 1 8.68579 9.12171 3.52798 0.965827
95 1 1 8.14435 10.4366 3.811 2.01477
345 1 1 10.4343 7.97256 3.43298 3.33126
1460 1 1 12.303 8.25827 2.14704 3.10062
7867 1 1 12.0679 8.90676 4.65682 1.92488
241 1 1 12.3855 9.74346 3.91923 0.622079
1250 1 1 14.2339 9.24518 2.68816 0.772273
2587 1 1 14.6552 8.74029 4.64984 0.174336
790 1 1 15.2637 9.80455 3.25963 0.319036
7470 1 1 14.2722 10.6961 4.8489 1.01126
6561 1 1 17.1194 8.07352 3.18028 2.63734
7432 1 1 0.35609 9.18938 3.08315 0.950445
1113 1 1 16.3262 7.97628 5.87996 1.61529
863 1 1 0.93919 10.7552 5.27452 4.11727
7721 1 1 4.32801 9.27903 4.44111 0.871159
1093 1 1 0.757841 12.1036 3.71089 1.03038
7474 1 1 1.87293 13.5127 5.11626 1.13238
399 1 1 3.14153 10.7216 2.7118 1.36968
2882 1 1 5.36299 9.92498 3.64471 0.215295
970 1 1 3.41751 10.6192 4.81914 1.28467
7862 1 1 3.42151 11.8012 5.2831 1.15107
2265 1 1 6.84315 9.29241 4.0693 1.38428
1727 1 1 7.6009 12.3994 3.17519 0.356523
478 1 1 6.96424 11.1176 1.09209 5.25065
825 1 1 10.3641 9.57171 3.05813 0.518405
1296 1 1 9.16384 10.1786 2.01904 1.82105
7573 1 1 9.54608 8.18103 1.83096 1.90906
378 1 1 10.229 12.2658 1.87815 1.09925
1332 1 1 12.1899 8.52042 3.15646 1.44137
1438 1 1 14.1272 12.2798 4.00612 1.25031
7979 1 1 13.8853 11.908 5.36674 0.0985457
1189 1 1 15.3473 11.3073 4.44536 0.67861
1072 1 1 14.3474 10.6824 3.65985 0.2082
1143 1 1 15.8059 9.85665 2.02989 0.254754
1728 1 1 18.1031 8.62695 4.01621 4.86941
622 1 1 18.4135 10.1146 3.21283 2.30181
1280 1 1 18.294 14.0226 4.82753 0.608684
1895 1 1 3.92296 16.3127 2.6118 0.169589
7863 1 1 18.2407 13.636 6.02472 1.0999
800 1 1 4.35546 15.8039 3.65212 0.636749
7011 1 1 0.51475 14.141 4.5221 0.616703
1178 1 1 6.62226 10.4018 4.22536 0.258636
1163 1 1 2.32479 15.0041 4.78836 3.01872
1448 1 1 6.0873 13.2957 3.58201 0.875612
699 1 1 7.10586 13.4729 3.83311 0.751627
163 1 1 9.97591 13.9455 2.89752 1.72262
1226 1 1 8.76252 12.2866 3.70286 2.04148
823 1 1 9.91351 13.3003 2.16137 0.278522
1504 1 1 9.64677 11.349 5.97936 0.49209
7138 1 1 14.6904 12.3503 2.59963 2.51058
1799 1 1 12.6098 14.916 3.89132 1.89451
991 1 1 14.923 11.2387 2.74729 1.62453
303 1 1 17.2043 11.4341 4.20321 1.1857
302 1 1 14.6327 13.9211 4.83732 0.158605
6563 1 1 16.8002 11.2522 3.10821 1.7927
1079 1 1 18.6215 12.2196 3.27215 0.442675
918 1 1 18.0975 14.4463 3.92406 0.286153
7754 1 1 17.9079 14.8319 5.8246 0.623726
642 1 1 18.7163 16.0373 3.63131 1.68648
7051 1 1 2.92406 13.9068 2.60858 0.796578
7515 1 1 0.536484 13.578 5.35846 0.437781
6531 1 1 4.41086 15.779 5.42201 0.284151
6536 1 1 5.42212 13.2398 6.00743 0.272036
7210 1 1 4.00617 12.1101 4.31728 0.99366
7139 1 1 6.55214 14.0226 4.66634 0.750494
221 1 1 8.85566 15.2384 4.16717 0.527202
1848 1 1 10.4157 12.8138 2.99927 0.594195
284 1 1 9.11926 17.1486 2.81958 1.26768
64 1 1 10.1283 11.5366 2.90013 0.504404
1100 1 1 10.7935 11.8567 4.17128 0.955994