ITEM: TIMESTEP
2100
ITEM: NUMBER OF ATOMS
8000
ITEM: BOX BOUNDS pp pp pp
0.0000000000000000e+00 1.8820720577620570e+01
0.0000000000000000e+00 1.8820720577620570e+01
0.0000000000000000e+00 3.7641441155241139e+01
ITEM: ATOMS id mass type x y z v_temp
351 1 1 1.169 0.888046 1.34816 0.414852
1198 1 1 1.50332 0.501337 0.327318 0.416844
1116 1 1 3.02372 0.095631 1.26411 1.35465
6280 1 1 2.8525 1.10559 0.743427 1.57306
6076 1 1 4.4117 0.406036 0.217552 5.27155
7613 1 1 4.87828 18.4433 1.3256 1.82335
775 1 1 6.4032 2.41565 1.08231 3.32298
6363 1 1 6.42005 1.93423 0.0677479 1.54447
175 1 1 8.24046 1.03392 1.02723 4.37134
934 1 1 7.45362 0.243793 0.168937 1.48486
1416 1 1 8.33891 0.0400272 1.24221 0.22802
6582 1 1 10.2551 0.962113 0.758906 0.554553
1139 1 1 11.5926 1.11607 0.565337 1.29136
7873 1 1 12.3799 0.458379 1.13697 4.83318
352 1 1 12.9125 0.346042 -0.00122621 1.56833
1377 1 1 14.6874 1.34481 0.668221 0.0478227
7568 1 1 13.7945 0.505271 0.708586 0.394838
1186 1 1 15.7614 18.4873 1.18544 1.90036
1265 1 1 15.8235 1.26831 0.212884 1.25717
126 1 1 16.2171 0.998214 1.52402 2.35896
791 1 1 17.2466 18.4656 0.348504 1.50335
1999 1 1 17.7236 18.615 1.34509 1.00494
383 1 1 18.2302 1.14341 37.5235 2.98367
7930 1 1 18.7759 1.25348 1.01849 0.553868
6845 1 1 0.175834 2.19722 0.365707 1.93714
31 1 1 0.649146 1.97423 1.45587 3.02039
1739 1 1 1.38779 1.86563 0.861531 3.37517
7604 1 1 3.48909 2.14454 0.462821 0.396956
155 1 1 4.0062 0.567451 1.20086 0.308597
7785 1 1 5.3127 2.07351 0.953797 0.456377
1446 1 1 7.25562 1.42497 0.582936 0.372033
217 1 1 7.20665 2.78522 0.681242 3.34256
418 1 1 8.71128 1.91657 0.701959 1.27431
726 1 1 10.1014 2.22086 0.680074 0.331566
2348 1 1 10.9113 1.73418 1.80372 0.290234
1333 1 1 12.0531 2.45729 37.5154 0.48555
515 1 1 12.509 1.80027 1.17335 2.65179
7745 1 1 13.1272 1.37479 0.39785 0.948326
1270 1 1 14.0467 2.00001 1.39785 0.510254
6850 1 1 14.1941 2.12174 0.284146 0.351835
1037 1 1 14.8724 2.68076 1.7593 0.773163
1315 1 1 16.8693 2.02202 1.12236 0.748228
6006 1 1 1.41645 3.59701 0.71068 3.37302
508 1 1 2.4071 2.79731 0.613279 2.0833
1045 1 1 1.66452 4.18686 1.74499 1.64312
875 1 1 2.55705 4.27909 0.288008 3.48425
7718 1 1 4.69712 3.38393 0.480822 0.926945
6152 1 1 4.6766 2.70319 1.52088 1.10617
1348 1 1 5.80119 2.90029 0.400304 0.245069
6026 1 1 4.84455 4.35234 1.25843 1.07809
1850 1 1 6.82108 3.97178 1.11598 1.69734
1381 1 1 8.35695 3.83072 0.409401 0.540744
7861 1 1 8.65353 2.89608 0.811617 4.5282
7032 1 1 10.2974 3.75199 1.20707 0.840517
1661 1 1 10.8859 2.91099 1.67201 0.969574
7588 1 1 12.2271 2.77508 0.816282 2.84826
6060 1 1 11.1269 4.2441 1.13849 1.66995
1806 1 1 14.2144 3.03706 1.0656 0.465176
7155 1 1 12.8165 3.78784 0.807259 0.657148
437 1 1 13.6766 3.59241 0.102173 0.295874
7301 1 1 15.359 2.44699 0.694243 2.14301
2221 1 1 15.6459 3.67683 0.233568 2.71495
7468 1 1 15.1811 3.78622 1.56211 1.95458
5355 1 1 16.2613 3.41228 1.25988 1.70946
223 1 1 18.0153 4.09311 37.1766 0.707806
2033 1 1 18.2335 3.03119 1.55849 0.90896
1401 1 1 1.09964 3.58946 37.0438 1.20451
7697 1 1 2.70591 5.34694 37.4124 1.26315
936 1 1 3.85546 4.50031 0.999156 0.387725
7904 1 1 4.5087 4.51108 0.0453488 1.84111
582 1 1 5.76864 4.6516 0.689486 2.23682
6922 1 1 9.18927 5.01741 0.143463 0.286236
7748 1 1 8.35358 6.13538 1.32724 2.62473
7387 1 1 7.79027 4.82939 1.13879 0.351707
6703 1 1 9.1674 3.95213 0.94197 1.87211
6551 1 1 10.6888 4.79544 0.0163665 0.771928
7408 1 1 11.7717 4.64951 0.342802 1.45349
6044 1 1 12.9744 5.26795 0.839377 2.04329
271 1 1 14.2498 5.48518 0.599355 4.21933
7320 1 1 14.3164 4.59276 37.6354 0.180983
7115 1 1 15.3994 4.73172 0.972808 1.32739
1329 1 1 16.3265 4.43334 0.795134 2.12382
103 1 1 17.1153 5.77071 1.01212 0.402283
7091 1 1 16.3112 5.54404 0.272003 1.94308
7717 1 1 17.9744 4.79833 1.25422 2.36125
6161 1 1 0.772601 5.40046 0.987453 1.38831
137 1 1 17.5409 6.77799 1.33786 3.65653
7507 1 1 0.0486056 6.88808 0.926021 2.53366
1409 1 1 1.05731 6.43128 1.69618 0.844334
7942 1 1 0.579962 7.44968 0.0999009 0.735812
6971 1 1 1.67117 7.15089 1.06087 0.9514
72 1 1 2.52635 7.51368 0.111659 1.45735
190 1 1 4.26262 6.10782 0.0919171 0.156962
6605 1 1 3.23609 6.86261 1.22592 2.11293
7215 1 1 4.59569 5.41972 2.38083 4.07382
294 1 1 5.31492 6.37821 0.372491 1.88756
7944 1 1 5.09982 6.92522 1.35463 1.99101
5747 1 1 6.53501 5.18872 1.06247 2.99106
429 1 1 8.6493 6.59408 0.326615 1.96778
7094 1 1 10.2871 7.27462 1.52743 1.49934
21 1 1 10.1973 5.8043 37.0782 1.83476
61 1 1 9.67685 6.41196 0.298515 1.28636
6619 1 1 12.391 6.61568 0.711018 1.41241
550 1 1 11.6088 5.77712 0.531979 0.953876
533 1 1 11.3368 6.57108 1.47153 0.694872
1664 1 1 14.2274 6.70145 0.701484 2.98676
486 1 1 13.8761 7.24626 1.76967 1.1669
591 1 1 14.812 6.78632 1.83316 0.456664
164 1 1 15.0522 5.51602 37.4382 1.36107
762 1 1 16.0399 7.30898 37.4307 2.53165
6476 1 1 16.2847 6.45119 1.03027 1.10752
5857 1 1 17.4952 6.96795 37.2712 0.529405
354 1 1 4.4097 8.41746 0.734222 1.60379
6987 1 1 3.58631 8.02189 1.39683 2.41615
6874 1 1 7.36866 8.74143 1.70594 0.146713
1415 1 1 5.42231 7.71968 0.810811 2.05972
615 1 1 7.7093 7.79781 0.976038 0.527033
7740 1 1 8.50899 8.61792 0.362473 3.56125
7958 1 1 9.48229 7.63897 0.809933 1.58526
973 1 1 10.8223 8.06226 0.966246 0.0974306
6463 1 1 11.9535 7.69811 0.789164 0.591267
91 1 1 14.6405 7.84955 1.01053 0.105383
1193 1 1 12.7721 8.00057 1.33635 1.37775
276 1 1 15.4071 8.71868 1.09778 1.03893
5649 1 1 18.7983 8.54532 0.819858 1.50922
371 1 1 17.4331 8.43454 1.39291 1.57142
1360 1 1 1.27435 9.71595 0.640711 1.0404
6196 1 1 1.64582 8.40936 0.669556 1.19491
6762 1 1 2.27755 10.0096 1.24445 2.92656
6126 1 1 5.0436 9.55469 0.460272 0.403242
834 1 1 4.55952 10.5455 0.548433 2.0341
7326 1 1 6.413 9.18694 1.13963 3.477
1681 1 1 5.3542 9.09839 1.65641 2.37618
6584 1 1 7.56641 9.99811 1.20284 0.908197
7065 1 1 7.55943 8.80907 0.608615 0.160505
7943 1 1 9.31858 9.79714 1.14303 4.22875
1781 1 1 8.66798 9.31654 1.98262 1.06613
6497 1 1 10.4209 9.89035 0.94361 2.64144
7866 1 1 10.5818 9.01426 0.508739 1.38988
6699 1 1 11.4919 9.53254 0.13453 2.30586
574 1 1 12.0803 9.65598 1.68477 2.02873
7266 1 1 12.1684 8.67942 0.818424 2.21729
7983 1 1 13.7166 9.09681 0.623997 0.982691
7021 1 1 16.3357 9.31861 0.462494 2.71505
6599 1 1 17.1966 9.74633 37.5068 0.081275
6159 1 1 17.5403 9.8116 1.33909 0.240625
86 1 1 18.2375 9.85548 0.288878 0.839854
7621 1 1 3.12152 11.5067 1.54848 1.86297
7967 1 1 2.01641 10.7753 0.417353 1.947
7047 1 1 3.24666 10.0505 0.693036 2.85387
6656 1 1 4.39791 10.4672 36.5106 3.55648
955 1 1 5.93008 11.0628 1.31649 0.316039
6842 1 1 8.25168 11.0988 1.71861 1.33849
7002 1 1 8.85473 10.8421 0.841337 0.417202
1790 1 1 6.83481 11.263 1.21542 0.609059
6380 1 1 5.85091 9.79726 37.3872 4.30051
6933 1 1 9.04178 9.47779 37.3449 0.754317
721 1 1 10.833 10.8933 0.303895 0.0974915
6752 1 1 9.9593 11.4579 0.421671 6.84921
6527 1 1 11.3097 11.7783 37.5185 2.03691
38 1 1 12.0412 10.4474 0.836786 1.60177
678 1 1 12.3786 11.4509 0.541189 3.41583
423 1 1 14.5784 10.5453 1.32948 1.95787
1074 1 1 15.0646 10.1821 0.42495 2.58455
1068 1 1 14.5583 11.2654 0.166512 0.81057
969 1 1 16.5215 11.2293 0.135268 0.953357
1349 1 1 17.3158 10.573 0.584918 0.269205
634 1 1 0.0932679 12.0913 0.918582 1.22078
7772 1 1 0.899244 11.4526 1.09576 2.51916
7836 1 1 0.337459 12.5197 37.4995 1.67634
7855 1 1 0.953986 12.9826 1.32994 1.14466
549 1 1 2.74207 11.4037 -0.0131649 1.41247
773 1 1 2.60011 13.1322 1.22741 2.19629
7056 1 1 3.80481 12.1247 0.383762 0.835862
8000 1 1 5.82983 12.4765 0.567197 3.83897
7854 1 1 6.37728 11.3731 0.219547 3.76849
1432 1 1 7.23479 12.3593 0.539246 0.574732
829 1 1 8.01202 13.1734 0.0964549 0.0436129
10 1 1 8.27928 12.2247 0.246657 0.897113
6399 1 1 9.71413 12.806 0.822338 0.72459
6939 1 1 10.6537 12.2655 0.599031 2.0119
1103 1 1 11.2465 13.9954 0.51849 0.199468
236 1 1 10.5763 12.4712 37.1926 0.829004
7548 1 1 14.1927 12.2496 0.194747 4.57509
2320 1 1 13.8488 11.7224 0.980587 3.82683
6590 1 1 14.5293 13.0297 0.919 3.54815
7993 1 1 15.6729 11.616 0.498372 0.29778
2353 1 1 14.9785 11.9524 1.66578 0.705298
7670 1 1 17.4308 11.6508 0.246713 0.38429
1676 1 1 16.0217 12.1804 1.29301 0.849887
1567 1 1 17.9756 12.8448 37.5384 0.207862
7947 1 1 1.35335 13.5302 0.425722 1.73365
962 1 1 18.7941 13.1702 1.05814 1.42455
4804 1 1 0.222237 14.2256 0.721949 0.38197
7957 1 1 2.0419 14.4218 1.64843 3.45179
1350 1 1 4.19454 13.3707 0.721924 1.02987
7217 1 1 3.50839 14.4262 0.5075 0.369167
6232 1 1 5.31712 13.1442 1.20835 0.570454
287 1 1 6.03454 13.2065 36.9376 7.2779
7248 1 1 5.95126 14.9515 0.964817 0.391545
239 1 1 7.96353 14.1489 0.48881 2.50094
1144 1 1 9.94153 14.103 0.576647 0.573757
1295 1 1 8.45153 13.921 1.75874 1.60899
976 1 1 13.1983 13.762 1.61118 0.0496821
7680 1 1 12.5167 13.9761 0.660549 0.300345
297 1 1 13.4182 13.4711 0.674162 1.56996
7052 1 1 14.4848 14.4182 0.711286 3.58831
7853 1 1 17.2828 13.5708 37.5971 3.85254
2409 1 1 17.6288 14.2061 0.834649 2.3715
7338 1 1 18.3032 13.2035 1.98497 1.17099
1529 1 1 18.3747 15.5194 1.14393 0.696561
7926 1 1 2.31262 15.5724 37.5891 0.937385
686 1 1 1.86681 15.7336 1.95418 0.39738
7101 1 1 1.30544 15.1597 0.956896 1.56375
7454 1 1 2.57107 14.5802 37.4786 2.29508
558 1 1 3.40293 14.4412 1.96113 1.11733
1481 1 1 4.07319 16.2612 0.404932 1.67387
844 1 1 4.52769 15.1993 37.4892 1.72402
1210 1 1 8.29038 14.9441 0.969487 2.68898
7891 1 1 10.1896 15.9494 0.805648 0.120423
7180 1 1 10.8638 14.4333 1.58141 1.15629
7543 1 1 13.135 14.8252 37.5344 1.52883
389 1 1 13.9258 15.5952 1.44394 2.11043
432 1 1 13.7477 14.5784 1.488 0.557858
653 1 1 15.3511 15.9462 1.40232 0.681957
393 1 1 15.6165 14.5606 0.406603 1.20332
7390 1 1 17.3438 15.2884 0.663178 1.07075
1406 1 1 16.4787 14.9569 1.28462 1.26624
579 1 1 18.7596 14.9098 37.4561 2.87555
7451 1 1 18.755 16.9267 1.13486 2.23979
1569 1 1 0.638435 17.5875 37.1426 3.44666
757 1 1 2.32901 16.7032 37.5735 0.189768
7569 1 1 4.29537 17.5248 37.6047 1.46514
1729 1 1 5.04326 15.6259 0.750973 3.29796
605 1 1 5.75325 16.4727 1.2776 1.6194
1995 1 1 6.73941 16.0154 0.386494 0.989329
7303 1 1 7.71005 17.3287 1.51206 3.94278
1582 1 1 8.34253 16.8099 0.0805218 3.15499
13 1 1 7.30721 18.1931 0.353086 0.393057
1206 1 1 10.3457 16.8775 0.104297 0.478115
6851 1 1 9.01427 15.6774 0.662802 1.93869
7452 1 1 11.3263 16.6301 0.8575 0.632723
7149 1 1 12.2883 16.9102 1.32123 0.468752
433 1 1 12.4902 15.9741 1.50457 2.43661
7341 1 1 13.4744 16.8229 0.772105 1.08812
1110 1 1 16.2797 16.3844 1.87576 2.71864
356 1 1 14.821 16.6838 0.788079 0.313145
629 1 1 16.3744 15.8263 0.478231 0.247781
1042 1 1 17.4863 16.3411 1.10923 2.82493
5999 1 1 17.8403 17.3602 0.974333 1.73998
7892 1 1 18.6395 18.7511 0.155041 0.353149
129 1 1 0.757477 18.5121 0.592287 2.17867
6688 1 1 2.60987 17.4904 0.848306 2.1252
692 1 1 3.85176 18.269 0.846512 5.01888
6713 1 1 2.64126 0.00319645 0.326696 1.03559
7404 1 1 3.64981 17.3053 1.60302 1.97976
835 1 1 5.29389 17.6897 0.636707 0.114235
6835 1 1 6.61487 18.2483 37.1886 0.0959742
566 1 1 7.44175 18.6645 1.60155 3.09791
6914 1 1 9.27127 18.4274 0.255743 2.07004
5985 1 1 11.3491 17.6554 0.438658 0.658436
472 1 1 11.9173 18.0677 1.58886 1.51446
7672 1 1 12.8893 18.0134 1.16698 2.06005
2287 1 1 15.0416 17.7171 0.844074 1.38916
6092 1 1 13.9667 17.6394 1.44567 1.49304
7106 1 1 16.1774 18.0573 0.306088 4.81249
7202 1 1 17.0242 17.8099 1.15516 2.32034
2662 1 1 17.5154 17.4221 37.5274 2.4074
7261 1 1 0.0667932 17.7193 0.365959 0.0735994
194 1 1 0.307457 0.570219 1.80103 0.939177
954 1 1 1.26553 0.996526 2.51237 2.77374
643 1 1 2.36832 1.85876 1.4715 1.76251
7818 1 1 3.51646 18.3464 2.22726 2.17275
3146 1 1 3.5267 1.03008 2.52885 0.333112
1279 1 1 2.33921 18.779 2.13446 1.27224
7166 1 1 4.66015 0.486637 2.22608 0.397054
1140 1 1 6.32179 0.348539 2.79937 1.02435
895 1 1 7.17194 1.06296 1.82431 0.152982
700 1 1 10.5358 1.39151 2.58152 1.62865
6986 1 1 11.5414 18.5208 2.61364 0.158342
1708 1 1 10.9372 0.695789 1.78662 1.1896
505 1 1 14.7531 0.138938 1.52908 1.75528
2106 1 1 13.5645 0.746017 1.83263 1.75505
640 1 1 13.6112 0.546034 2.79826 0.145172
7440 1 1 15.4005 0.510594 2.52863 2.47394
1928 1 1 18.4291 18.4122 2.28619 1.97906
1672 1 1 0.34579 0.804783 2.97042 0.84584
7992 1 1 1.23672 2.20228 2.43313 2.20947
7938 1 1 1.81869 3.12472 1.56852 1.42386
656 1 1 4.27713 2.63179 2.50684 3.11364
489 1 1 3.8423 2.25128 1.48741 1.25201
1309 1 1 4.86074 1.51565 1.89154 0.770306
6942 1 1 6.13579 1.43571 2.3556 0.0226374
7535 1 1 8.41353 1.10738 2.64622 0.647981
7332 1 1 8.14878 1.9054 1.62853 2.50267
6477 1 1 8.68743 2.86016 1.95852 1.05861
94 1 1 9.2461 2.49553 2.91963 2.21035
6659 1 1 9.23777 1.83904 1.56414 1.46115
82 1 1 9.56687 3.15805 1.51681 1.44884
1993 1 1 10.0777 2.32918 2.14858 2.73237
511 1 1 13.1356 1.86646 2.10384 0.645301
1339 1 1 12.1147 1.23352 1.93787 0.846889
122 1 1 11.726 2.54538 1.89235 0.848016
3071 1 1 14.0516 3.07562 2.07181 0.262989
1183 1 1 14.3819 1.41818 2.10141 1.41744
1591 1 1 17.3531 2.24795 2.56846 5.45981
149 1 1 15.6369 1.50331 2.04762 0.992408
1020 1 1 16.3489 2.7603 1.98822 0.665263
7088 1 1 17.8909 1.62238 1.79792 0.373099
7841 1 1 1.27706 3.29804 2.43147 1.60197
366 1 1 0.508135 3.01797 1.76859 0.99665
406 1 1 2.7264 3.79944 1.59213 0.82388
509 1 1 2.12877 3.84081 2.83756 1.62115
2824 1 1 3.70367 3.35072 1.26446 0.931525
3 1 1 4.84567 4.3598 2.89725 0.566953
1237 1 1 5.42663 3.33305 2.2769 0.544172
7503 1 1 6.04979 3.23701 1.47328 4.42267
7663 1 1 6.45464 3.45088 2.62744 0.366941
7653 1 1 8.61451 4.70287 2.07551 0.752486
661 1 1 7.65307 3.62638 2.17245 1.60832
56 1 1 7.15056 2.71365 1.7304 2.41397
570 1 1 9.67834 4.08884 3.36475 2.77947
3337 1 1 11.3437 3.59954 2.5398 0.895945
1648 1 1 10.2329 3.3299 2.77472 0.793494
980 1 1 12.952 2.90155 2.11766 1.01428
1239 1 1 14.0054 4.20807 1.39186 3.3122
6241 1 1 15.378 3.61809 2.63441 1.60939
651 1 1 16.6533 3.37301 2.96395 0.680109
115 1 1 17.0499 4.03521 1.40923 0.0969606
7937 1 1 18.3409 2.76329 2.54461 2.17065
314 1 1 0.159863 5.27747 2.78552 0.556491
7284 1 1 0.53467 4.54913 1.93364 1.66947
7631 1 1 2.22599 5.01904 3.23036 1.38754
68 1 1 2.43621 5.80154 1.71009 0.8811
7660 1 1 2.93838 4.46133 2.36677 1.89167
1714 1 1 7.53493 5.87781 2.03074 1.06561
7643 1 1 7.80013 5.07566 2.66535 1.06291
7644 1 1 10.6083 4.58473 2.0124 1.40133
553 1 1 12.2015 4.94076 2.12664 0.478131
7348 1 1 13.0481 4.2974 2.18848 0.428513
588 1 1 12.0415 5.00403 3.22214 1.24219
1826 1 1 13.4003 4.89044 2.99153 0.176192
1833 1 1 14.7609 5.3445 1.42429 2.29708
469 1 1 16.1039 5.34453 1.25049 0.460253
7358 1 1 16.6063 4.33309 2.25789 0.172522
802 1 1 17.6412 5.73527 1.97336 0.202772
7659 1 1 18.2302 4.55765 2.20414 0.932209
3092 1 1 17.6456 4.91283 3.0325 1.25955
1287 1 1 18.4341 6.79822 2.62363 0.892847
5817 1 1 2.75234 6.71331 3.32446 0.156876
7242 1 1 1.91756 6.46337 2.43135 1.5238
7803 1 1 3.15844 5.56461 2.69608 1.41422
7738 1 1 4.05006 6.66017 2.64446 0.595304
1596 1 1 2.88335 6.88546 2.20204 0.73706
1427 1 1 3.69593 5.81869 1.85 1.05319
214 1 1 6.46047 6.12874 2.98894 0.132488
1076 1 1 9.20086 7.19573 1.57943 1.75417
1369 1 1 9.33945 6.12016 2.60614 4.33503
117 1 1 10.3856 6.44681 2.68884 3.11559
7625 1 1 11.4782 5.72527 2.7835 3.53858
7972 1 1 12.2138 6.37996 3.48085 1.09797
140 1 1 12.1903 6.38886 2.35438 5.27001
7719 1 1 13.2547 6.07409 1.8138 0.624737
7185 1 1 15.4761 5.84498 3.21598 1.43073
1537 1 1 15.8778 6.98825 2.282 2.00211
7544 1 1 16.5157 6.00217 2.21964 1.33989
6995 1 1 17.4887 7.51097 2.93692 2.15893
6975 1 1 0.966693 8.97108 2.40768 1.17692
1562 1 1 0.490248 7.56852 2.13482 0.408321
926 1 1 1.77236 8.24503 1.85374 0.304703
7472 1 1 1.99179 7.98693 2.94423 1.12969
925 1 1 4.80396 7.35636 3.04885 0.397089
529 1 1 6.54992 7.65987 0.974126 1.29352
1547 1 1 5.98402 8.3432 2.16076 0.2541
1224 1 1 7.93596 8.01987 2.25386 1.02787
1194 1 1 8.47584 8.39167 1.49909 2.05461
1107 1 1 9.86562 6.98419 3.5615 0.686512
6566 1 1 10.2118 8.08378 2.14234 2.23423
519 1 1 11.7373 7.50752 2.68671 2.40976
2244 1 1 12.1231 8.42115 2.21816 1.12817
277 1 1 12.6701 7.42268 2.0888 1.63426
5690 1 1 13.6736 7.95358 2.48603 2.08099
543 1 1 14.7428 8.12156 2.68155 0.355236
102 1 1 15.5714 7.99119 1.89159 1.4092
913 1 1 16.3247 8.38808 2.72925 2.21647
669 1 1 16.9771 9.44632 2.07387 1.66553
6675 1 1 16.9455 7.0936 2.15241 3.99168
107 1 1 17.2837 8.55761 2.95405 0.924617
1036 1 1 0.788191 8.86591 1.24696 0.472762
178 1 1 1.87556 10.2989 3.80707 0.490042
1863 1 1 4.09572 9.12974 2.79536 0.624698
369 1 1 3.89863 8.97166 1.49074 0.3176
2311 1 1 5.28127 9.18695 2.65289 0.587401
1046 1 1 6.04335 9.87292 2.20227 0.472874
238 1 1 7.97932 10.2029 2.55593 1.75968
985 1 1 10.2025 9.00447 1.4653 5.25426
7538 1 1 8.71045 10.4396 3.30086 0.888024
341 1 1 9.93785 8.39665 3.20408 1.40602
7156 1 1 10.1183 9.82284 2.14441 1.17593
610 1 1 11.2154 9.12043 1.35941 0.631076
1487 1 1 12.3248 9.73279 3.06568 3.31853
7945 1 1 14.0388 8.66748 1.82561 1.47384
1906 1 1 15.1404 8.94768 2.21474 3.15739
79 1 1 15.8779 9.7116 2.02214 0.670832
247 1 1 18.3852 9.00564 1.71791 1.31492
7851 1 1 18.5156 10.6079 2.48493 0.437453
230 1 1 0.704279 10.3429 1.87377 1.42802
300 1 1 1.30587 10.5106 2.93513 3.93715
7966 1 1 2.74759 10.5054 2.6963 1.53706
445 1 1 3.56613 11.4842 2.69655 0.992328
765 1 1 3.31004 9.94678 2.01729 1.25688
340 1 1 4.41396 9.82635 1.70663 1.60323
1264 1 1 5.31991 11.0229 2.37255 0.960723
481 1 1 6.40108 11.4671 2.37079 2.04892
1389 1 1 5.68091 10.6303 3.49814 0.973999
7335 1 1 6.79478 10.4932 2.48501 0.794911
4198 1 1 9.18682 10.5527 2.28795 1.53634
1069 1 1 11.0539 10.2946 1.83955 1.71446
2814 1 1 10.2291 10.9562 1.37446 4.31104
1385 1 1 10.4852 10.9417 2.51598 0.336304
6693 1 1 12.9825 9.94618 2.13345 2.21885
386 1 1 12.2312 10.6416 2.21626 2.94852
7913 1 1 14.971 9.70618 1.26217 0.699202
374 1 1 13.1892 11.0354 2.25462 0.698143
818 1 1 14.3956 11.6793 2.55231 0.105937
1234 1 1 17.6146 11.7905 3.06152 1.95405
7800 1 1 16.3485 10.4899 1.54371 2.79786
336 1 1 18.0365 11.4281 1.88275 2.99353
7089 1 1 18.7064 10.1887 1.34087 1.03321
259 1 1 0.938116 11.564 2.32943 0.669564
245 1 1 1.15086 13.293 2.46184 3.17663
7811 1 1 2.39018 12.7313 2.549 1.01298
584 1 1 5.38168 11.9048 2.98708 0.532504
704 1 1 5.00801 11.7915 1.25528 0.69005
769 1 1 5.86543 12.7978 2.59535 1.16837
6646 1 1 4.08858 13.1271 1.66857 0.553442
815 1 1 7.16453 12.3181 2.34128 1.20497
1542 1 1 7.78918 11.9476 1.30899 1.0648
7704 1 1 8.80761 12.2518 1.71036 1.08684
1475 1 1 8.08878 12.4335 2.55717 3.65009
7459 1 1 8.7411 11.4223 2.51064 0.187071
563 1 1 10.1115 11.9505 1.72421 1.01219
734 1 1 9.09116 13.2914 2.33627 1.4025
6723 1 1 11.6042 12.7952 1.34926 0.0703555
7004 1 1 11.382 11.3484 1.59879 1.53891
7834 1 1 13.7474 12.2064 3.18148 4.86723
2150 1 1 12.7565 11.8328 1.76515 1.29459
627 1 1 14.8605 12.8817 2.40487 0.545507
1514 1 1 16.3308 13.0682 1.86539 1.74003
712 1 1 16.8074 14.0708 2.75624 0.866904
234 1 1 18.4446 13.8753 2.75718 1.8148
1082 1 1 18.7953 12.0495 2.39491 9.4902
1971 1 1 0.35317 14.3366 1.86182 1.17749
6459 1 1 4.14905 14.0762 2.48522 0.302523
7060 1 1 5.19032 14.136 0.996265 0.847942
6600 1 1 5.10577 13.6891 2.54988 1.28685
487 1 1 6.98988 13.6192 2.80995 1.07688
365 1 1 7.75046 14.6027 2.08812 0.991582
53 1 1 7.21869 14.2167 3.93997 4.91075
1165 1 1 8.0651 12.9652 1.23072 5.6076
7984 1 1 9.3944 14.2939 1.93503 1.57314
286 1 1 10.6656 13.2916 1.08444 1.75201
416 1 1 11.6975 13.973 2.18596 1.17101
6750 1 1 14.3075 13.5837 1.84293 3.88339
1187 1 1 13.4734 12.9022 2.29565 0.467251
1904 1 1 13.0121 14.4835 2.57716 1.05367
7444 1 1 15.2331 13.9672 1.25165 2.31848
375 1 1 17.1303 13.9645 1.80416 1.81029
1282 1 1 0.5302 15.6132 2.1262 1.64475
1561 1 1 2.65702 15.5416 2.53734 0.535433
785 1 1 3.64872 15.5925 2.08212 0.121606
504 1 1 4.36561 16.2728 1.87859 0.341788
1527 1 1 5.32992 15.3622 2.03372 1.51583
2046 1 1 5.74183 16.4858 2.37239 0.996325
7489 1 1 6.67903 15.3737 1.98254 0.385655
885 1 1 6.19914 14.4675 3.50921 0.815254
902 1 1 6.88922 15.5983 2.96502 0.246173
1940 1 1 9.83689 15.4167 2.82727 0.674699
2224 1 1 11.652 15.3345 0.603897 4.16888
961 1 1 8.83573 15.5133 1.69736 4.81878
7893 1 1 11.951 14.7577 2.81725 0.422438
7757 1 1 14.9725 15.1682 2.15809 1.9382
93 1 1 15.2401 14.8041 3.17649 0.651405
1077 1 1 15.8146 14.1504 2.29943 1.27847
1614 1 1 16.8956 15.057 2.36302 4.29543
7951 1 1 18.1952 16.1166 1.99829 2.3483
7116 1 1 17.2107 16.009 1.95997 1.18923
439 1 1 2.16374 16.7311 1.56324 1.4001
1634 1 1 2.08302 17.4165 2.52055 2.43854
7934 1 1 4.24157 17.0129 2.80614 0.723588
763 1 1 8.21227 16.4699 1.80371 3.27758
7620 1 1 9.6824 16.2733 1.88641 2.74785
1196 1 1 10.8691 17.5626 2.19256 1.71269
338 1 1 10.6959 16.3846 2.28429 1.17807
1167 1 1 12.6605 16.7559 2.3565 3.34456
7163 1 1 14.3716 16.4877 2.00661 1.98729
820 1 1 13.3562 15.9223 2.24366 3.08463
1308 1 1 14.6591 17.8889 2.50647 0.471264
1479 1 1 15.272 16.3422 2.64463 1.0129
1638 1 1 18.1996 16.7299 2.77707 1.6845
328 1 1 1.11394 17.5928 1.63982 3.06492
859 1 1 0.112985 18.0757 1.34044 1.85863
611 1 1 3.305 17.9122 3.26068 4.31141
6866 1 1 6.11993 0.656273 1.66326 2.24241
687 1 1 6.2562 17.7321 1.14929 0.995204
7300 1 1 5.62563 18.6269 2.37091 2.24374
1328 1 1 6.80951 18.3091 2.47886 1.46816
96 1 1 8.06214 -0.00130486 2.59872 1.08818
6079 1 1 9.34959 0.142929 1.10241 1.75603
173 1 1 8.53094 17.9357 0.774815 0.630622
7950 1 1 9.7886 17.2985 1.98186 5.43761
696 1 1 11.8126 17.5964 2.86501 4.77913
1616 1 1 12.8033 17.9045 2.46076 1.24485
20 1 1 13.5866 17.1731 2.21643 1.37616
1588 1 1 13.6738 18.4564 2.11655 1.27504
6872 1 1 16.3665 17.9933 1.91438 1.57782
881 1 1 16.4633 15.9618 2.87149 1.68621
1269 1 1 17.4404 17.3661 2.00274 0.705281
7497 1 1 16.7287 0.153104 1.36667 0.946104
7744 1 1 17.3958 18.6291 2.69613 0.119348
1607 1 1 0.672946 18.001 2.71836 4.07746
18 1 1 0.510971 0.000854651 3.58813 1.07232
2026 1 1 2.13018 1.4627 2.70509 0.0422422
547 1 1 2.76221 0.419053 3.07927 7.80534
1327 1 1 3.37974 18.3706 4.53098 2.28425
633 1 1 5.21966 1.15429 3.52749 2.77289
1738 1 1 4.88115 1.61081 4.51177 1.42483
2126 1 1 7.61332 0.977922 3.90635 0.83585
7982 1 1 8.2131 0.090951 3.89001 1.25678
1168 1 1 9.50548 0.708359 2.85876 1.64251
497 1 1 7.32154 0.845152 2.86924 1.5275
1579 1 1 11.0926 18.6828 4.16051 0.594708
7150 1 1 10.0357 1.75188 3.88735 0.565572
7821 1 1 12.2304 0.746693 3.41369 1.38505
7669 1 1 13.2164 0.245983 4.26803 0.598615
7980 1 1 14.071 0.273259 4.72987 5.5175
2270 1 1 14.3858 0.739832 3.55181 0.825522
430 1 1 15.1869 0.94217 4.53793 1.92785
1413 1 1 17.1381 1.1277 3.42138 2.85449
867 1 1 16.3671 1.26437 4.22617 0.508548
7028 1 1 16.1279 1.18648 3.06428 0.561993
853 1 1 17.8829 0.321163 3.31951 1.74964
1443 1 1 17.9909 0.616573 1.92004 1.85301
879 1 1 1.34139 1.87917 3.4686 0.734607
2030 1 1 3.24935 2.07967 2.63618 0.365836
109 1 1 2.74292 2.04145 3.54843 2.63856
7251 1 1 2.71805 3.00215 3.98536 1.5858
915 1 1 3.61188 2.65002 3.40176 2.45646
1543 1 1 5.053 1.9293 2.88226 1.77325
1322 1 1 5.69716 2.25783 3.80619 1.69135
7989 1 1 6.58837 1.51964 3.22817 0.965738
454 1 1 7.90651 2.44885 4.16927 1.08975
1466 1 1 9.06872 1.88009 3.92547 0.283668
824 1 1 10.6241 2.3324 3.23257 0.271584
1213 1 1 13.4924 2.75782 3.28021 0.761379
906 1 1 11.5612 1.57679 4.04508 1.2096
409 1 1 12.5898 2.23119 3.13526 1.5926
2075 1 1 12.5903 2.15739 4.19833 1.45713
1473 1 1 13.4175 1.62629 3.73596 1.76758
1044 1 1 13.8353 1.55523 4.7013 0.66693
1223 1 1 15.7946 2.23347 2.69778 1.34619
387 1 1 14.6588 1.93755 3.9466 0.720388
7601 1 1 16.7035 2.11298 3.60751 0.59436
206 1 1 0.207187 1.98661 2.41146 2.70427
148 1 1 0.144467 2.17982 3.73912 1.68809
874 1 1 18.3254 1.62964 3.02833 0.353148
7280 1 1 0.598508 2.97643 3.31341 1.4727
1374 1 1 1.02975 4.23354 2.69645 0.29515
6648 1 1 2.52473 4.29623 4.0951 0.654014
774 1 1 1.71655 3.40096 4.12117 0.597657
7123 1 1 2.91834 3.25939 2.8177 0.684331
2917 1 1 1.93774 2.67072 3.10451 1.09593
1365 1 1 3.84848 4.20218 2.80469 1.98957
7921 1 1 4.56699 3.58856 3.93505 0.14715
7685 1 1 7.12156 4.40181 3.12577 0.404677
1488 1 1 6.40529 3.39134 3.9975 0.546437
2177 1 1 8.09685 2.91685 2.95957 2.68606
1208 1 1 7.95405 3.78428 4.09306 1.91719
544 1 1 9.88727 2.87486 3.84567 0.44654
623 1 1 10.958 3.16857 3.60485 1.62409
7010 1 1 11.8064 2.92463 4.43983 2.34364
446 1 1 12.4906 4.06842 2.9413 4.7845
2139 1 1 14.3057 3.99833 2.42779 0.632593
2867 1 1 15.0014 2.97714 4.37118 2.63725
1539 1 1 15.6069 3.14186 3.57372 1.20015
1422 1 1 16.8425 2.89491 4.52981 2.09442
7914 1 1 15.7397 3.90952 4.28334 2.58734
828 1 1 16.7947 4.33372 4.47408 0.0869587
982 1 1 18.3655 3.9309 3.12283 0.187849
1041 1 1 17.6501 2.65002 3.59772 2.55232
47 1 1 0.235697 4.6656 3.64918 0.29062
1659 1 1 0.905702 3.99968 4.37543 2.95505
15 1 1 1.27289 4.79561 3.62033 0.413092
548 1 1 1.96659 5.61378 5.48786 3.55408
7924 1 1 3.55311 4.11207 4.22762 1.69171
125 1 1 5.64785 4.85207 4.03955 5.89232
1723 1 1 5.84282 4.766 2.72339 1.04925
98 1 1 7.40037 5.5997 3.75829 0.525152
2318 1 1 8.48829 5.58599 4.06725 5.35164
796 1 1 9.98459 5.18306 3.63234 0.510039
6136 1 1 8.67695 4.50969 3.39935 2.05421
7666 1 1 11.4429 4.25618 3.8457 2.02795
183 1 1 10.2364 5.31174 2.63125 2.41216
1203 1 1 13.4064 5.51281 3.81292 1.91947
2017 1 1 14.0524 5.92608 2.61205 0.219783
7273 1 1 15.2187 4.69041 2.3224 1.99551
7998 1 1 16.4281 4.86134 3.62613 0.222259
75 1 1 17.9823 4.48518 4.13056 0.343033
6396 1 1 0.212018 6.28932 3.58156 1.11458
1002 1 1 1.89161 6.05013 3.74373 0.458351
6848 1 1 3.18967 7.69886 3.43709 0.230209
1883 1 1 3.4073 5.88931 3.55251 0.108909
7879 1 1 5.01392 5.73271 3.28205 3.10076
1717 1 1 4.69035 7.09372 4.75552 0.40694
6767 1 1 5.50386 6.7259 3.84441 1.4413
1864 1 1 5.74738 8.00489 3.73609 1.82891
131 1 1 6.45614 6.48562 4.11127 1.77392
188 1 1 8.24341 6.5218 3.05832 2.3482
1217 1 1 7.66943 6.46386 4.68241 0.352029
7782 1 1 9.26497 6.77706 4.35432 2.11813
564 1 1 10.8668 5.74701 3.86021 0.349487
6538 1 1 11.0345 6.92391 3.49933 1.22208
1927 1 1 11.7425 5.42646 4.32447 5.0104
1051 1 1 14.2794 6.85715 3.08497 1.459
7611 1 1 13.9897 7.03746 4.15645 4.04258
285 1 1 15.4316 7.23398 3.23544 3.10573
5812 1 1 15.3259 4.82573 3.36962 4.13413
108 1 1 16.4565 6.13 3.34132 2.13534
602 1 1 16.1135 5.99271 4.44816 1.36704
1338 1 1 17.395 6.43687 3.57548 0.847367
928 1 1 0.0540969 7.3683 3.87654 1.21921
1399 1 1 0.962067 6.93948 2.93141 4.03035
2747 1 1 1.78164 7.56627 3.90854 0.207064
996 1 1 2.51205 9.17865 3.31779 0.849758
357 1 1 3.30402 8.60847 3.87895 0.537179
626 1 1 4.90752 8.64919 3.68926 6.6406
983 1 1 4.20687 7.87439 3.71208 4.51099
568 1 1 6.95382 7.87742 2.52746 1.36867
344 1 1 6.63287 8.65054 3.77278 0.796621
2980 1 1 8.00564 8.44702 3.2715 1.62558
7322 1 1 8.75618 7.41452 2.9914 2.09744
1784 1 1 10.0734 7.45742 4.63774 2.31778
648 1 1 12.3926 7.61805 3.45711 2.54942
738 1 1 13.0499 8.81409 2.6991 1.91614
1802 1 1 12.1512 8.65854 3.34692 1.02081
1513 1 1 14.1799 7.84145 3.59326 0.0452603
596 1 1 14.8725 9.04031 3.14874 1.92608
235 1 1 16.5254 7.36164 3.23529 1.12246
240 1 1 17.5146 7.6469 3.95686 0.227216
6875 1 1 18.188 8.21199 3.18984 1.04128
2798 1 1 0.717357 9.59656 3.35694 0.499427
134 1 1 1.73112 9.56144 4.46623 2.41345
440 1 1 3.70058 9.41284 4.39252 2.84559
1417 1 1 5.16921 9.80467 3.75061 1.40651
1001 1 1 6.25692 9.62066 3.33164 0.341956
604 1 1 6.90626 9.05099 2.56914 3.17913
1211 1 1 7.62648 9.22814 3.85273 2.34005
95 1 1 8.46023 9.38634 3.2087 0.552391
345 1 1 9.77268 8.44198 4.50878 0.472336
1460 1 1 11.1023 8.84391 2.54303 2.48438
7867 1 1 12.8897 9.38492 3.77182 0.497308
241 1 1 12.1769 9.49441 4.45381 1.23309
1250 1 1 13.9717 9.60271 2.62944 1.25897
2587 1 1 13.3893 8.57043 3.61894 0.62309
790 1 1 15.8401 9.57732 3.11701 2.52044
7470 1 1 14.2685 9.40808 4.17028 0.636474
6561 1 1 16.9033 9.47729 3.85667 0.445813
7432 1 1 18.6884 9.01414 2.70631 1.82529
1113 1 1 18.5176 9.27407 4.62079 0.508904
863 1 1 0.791796 9.95 4.35862 1.36762
7721 1 1 3.33644 10.4157 4.27657 0.989076
1093 1 1 1.18685 12.3792 3.04979 0.904567
7474 1 1 2.11333 12.2941 3.87878 2.91692
399 1 1 3.00137 11.3617 3.70413 0.0645911
2882 1 1 4.03688 10.0978 3.39368 3.3469
970 1 1 4.30875 10.8919 4.39637 0.36098
7862 1 1 4.57897 11.0528 3.16065 1.2921
2265 1 1 6.89149 10.0557 4.22694 0.601522
1727 1 1 7.74387 11.4227 2.59581 5.62467
478 1 1 7.77748 10.5036 3.81313 4.48071
825 1 1 9.4361 11.2542 3.33798 0.992181
1296 1 1 9.54744 9.90128 4.00033 0.336516
7573 1 1 10.9806 9.89894 2.8708 1.81959
378 1 1 11.9056 11.4911 3.04751 3.34978
1332 1 1 11.1305 9.71046 3.86824 1.03862
1438 1 1 12.5192 10.5638 3.79488 0.231816
7979 1 1 13.4807 10.4675 4.28822 2.70273
1189 1 1 12.9926 11.3774 4.31341 0.44637
1072 1 1 14.5319 10.7457 3.74553 0.205691
1143 1 1 15.8743 10.8169 3.02733 1.15491
1728 1 1 17.9346 10.878 3.3562 1.45556
622 1 1 18.4177 9.71007 3.55486 1.71932
1280 1 1 0.532596 12.0739 3.98367 1.85732
1895 1 1 3.0993 13.8628 3.52149 2.77419
7863 1 1 1.38041 12.8163 4.69239 3.45079
800 1 1 3.26129 12.8308 4.25121 2.17465
7011 1 1 4.16049 11.9934 3.5424 3.88024
1178 1 1 5.44997 10.8805 4.67991 2.41072
1163 1 1 4.09209 12.1275 4.50231 2.5329
1448 1 1 6.34122 13.3563 3.59905 2.47544
699 1 1 7.22871 12.3132 3.34767 0.372401
163 1 1 8.371 13.5152 3.27457 3.0902
1226 1 1 8.33911 11.6497 3.48038 2.30785
823 1 1 9.99075 12.0263 3.14056 0.400159
1504 1 1 9.30505 12.7476 4.19557 1.56961
7138 1 1 12.9965 11.3822 3.25262 0.696934
1799 1 1 13.2018 13.2407 3.42512 1.54617
991 1 1 15.2639 11.8563 3.3905 0.189689
303 1 1 14.4645 12.2339 4.48857 1.98004
302 1 1 14.2073 12.9607 3.82754 2.12828
6563 1 1 16.4921 11.4781 3.85267 0.467851
1079 1 1 18.0689 12.5869 3.43655 1.93276
918 1 1 17.4852 13.625 4.29134 2.26149
7754 1 1 0.620874 13.8749 4.4504 2.20852
642 1 1 0.310941 13.0956 3.13796 0.615168
7051 1 1 2.53158 13.6586 2.23407 2.11336
7515 1 1 1.89706 13.6423 3.60943 0.64423
6531 1 1 4.54596 14.6265 4.85558 0.616634
6536 1 1 5.22437 13.4138 3.92467 0.747728
7210 1 1 4.44026 13.217 3.27493 1.44262
7139 1 1 7.85058 13.0631 4.36356 3.65657
221 1 1 8.25792 14.2459 4.37029 0.591153
1848 1 1 9.97228 14.3473 3.79802 2.53247
284 1 1 10.9811 14.2067 3.11439 1.62122
64 1 1 10.3372 12.7891 3.69534 3.6241