ITEM: TIMESTEP
4300
ITEM: NUMBER OF ATOMS
8000
ITEM: BOX BOUNDS pp pp pp
0.0000000000000000e+00 1.8820720577620570e+01
0.0000000000000000e+00 1.8820720577620570e+01
0.0000000000000000e+00 3.7641441155241139e+01
ITEM: ATOMS id mass type x y z v_temp
7088 1 1 17.5989 17.8034 37.3421 3.36389
677 1 1 0.886269 0.336347 0.42906 0.920858
6814 1 1 4.54523 0.455712 1.68356 2.32989
2103 1 1 6.70385 0.15421 2.62491 0.924997
1134 1 1 7.38841 2.17135 0.59982 0.647945
6551 1 1 9.47752 1.22972 0.587507 2.82766
1588 1 1 11.5347 1.95651 1.20281 1.91856
6121 1 1 9.70563 18.0437 0.45792 1.69851
94 1 1 10.9634 18.5349 0.48169 4.90897
1044 1 1 12.0934 0.632472 36.5592 0.788899
7796 1 1 11.9377 0.269725 0.547702 0.271155
7301 1 1 13.6899 1.28891 0.749531 2.19384
7423 1 1 14.7312 1.05029 0.723056 2.26712
7960 1 1 15.2106 1.22504 1.5642 2.07857
1479 1 1 16.4894 18.5994 37.5045 2.16314
2221 1 1 16.2579 1.00367 0.754109 4.90143
5355 1 1 0.678347 2.81404 1.37682 1.23418
859 1 1 2.62204 1.69244 0.753301 1.38281
776 1 1 2.13798 0.974327 0.279878 0.215503
6494 1 1 5.76769 3.65538 0.558958 4.76077
7412 1 1 4.0716 2.53781 0.14188 2.46058
2824 1 1 3.81916 1.7259 1.08419 1.6065
7604 1 1 6.52193 1.73789 0.0385599 1.3146
7653 1 1 5.1919 1.35359 36.6412 0.570252
1266 1 1 6.20924 1.58353 2.54816 8.20561
175 1 1 6.57747 1.78176 1.57124 2.86775
7032 1 1 9.75143 2.64043 0.722644 0.507752
437 1 1 8.89657 18.6255 1.23327 4.62087
1563 1 1 12.9587 1.81149 1.28921 1.83823
7431 1 1 11.4415 3.00226 1.2006 1.03498
1806 1 1 11.8465 3.01882 37.2182 0.234889
350 1 1 13.7663 2.61881 36.4724 0.929281
828 1 1 13.1527 3.04712 37.4672 4.29116
636 1 1 14.5103 1.78477 1.30576 0.165564
1183 1 1 16.5346 2.12286 0.594729 2.91964
877 1 1 15.2189 2.50466 1.29675 2.33619
6845 1 1 17.0968 1.43552 1.1901 0.157308
2202 1 1 1.72939 2.03491 2.18666 0.362581
791 1 1 1.79306 3.7198 2.34137 3.09683
6006 1 1 3.38008 0.724336 1.33831 2.16551
314 1 1 2.06939 5.73804 0.49431 1.3305
406 1 1 4.97756 3.26614 37.2839 1.77978
367 1 1 3.11216 1.8197 37.4875 0.845002
6777 1 1 4.42048 4.37241 0.469064 1.88997
324 1 1 4.93361 2.72411 1.32819 0.597555
454 1 1 8.63766 4.17046 37.0745 1.21311
1085 1 1 6.68349 3.15133 1.03083 0.406401
5462 1 1 7.72493 3.24278 1.84503 2.49119
2244 1 1 10.9563 0.759081 0.0869513 2.22978
285 1 1 10.4918 3.28156 1.56696 2.3996
7115 1 1 13.0347 4.93179 35.5829 1.90885
7155 1 1 13.9717 4.64236 0.00347736 1.40335
430 1 1 13.8973 3.60103 1.37395 1.72764
7392 1 1 14.6732 2.06934 36.4802 2.84729
7440 1 1 17.7698 4.08808 2.23818 2.31492
7660 1 1 2.06549 4.79885 1.71035 0.221275
190 1 1 2.69563 4.94318 0.692565 2.03319
7346 1 1 1.0899 3.64806 1.03566 0.886441
1562 1 1 2.32243 6.90802 0.680164 3.92364
733 1 1 3.7104 5.32603 0.65471 0.339807
7260 1 1 3.66014 3.53702 37.2243 0.483562
7564 1 1 8.38449 4.63314 0.541265 0.0161697
7450 1 1 10.5511 4.9123 37.4567 1.47585
973 1 1 11.0812 4.37347 1.59752 2.22957
5741 1 1 11.8721 6.03704 1.34028 4.9195
6949 1 1 12.2562 5.48715 2.37596 1.34659
6997 1 1 13.4916 3.34014 2.3822 0.201659
7544 1 1 16.3356 4.3246 34.1838 0.996187
7273 1 1 17.8492 4.5604 37.4899 2.01732
552 1 1 17.0298 5.88203 1.26368 4.01191
137 1 1 18.4016 5.16844 1.76224 0.79651
1020 1 1 0.68989 5.17077 0.780705 2.41132
7594 1 1 18.7091 4.98538 37.6256 3.43005
1037 1 1 1.75163 7.71927 0.942173 2.69202
7965 1 1 18.6952 7.15486 0.264322 1.998
1714 1 1 1.52767 5.75878 37.1205 2.03425
762 1 1 1.7227 8.7644 0.65778 0.622166
135 1 1 4.86226 5.3785 1.53553 1.87695
7703 1 1 6.38298 4.67825 0.564475 0.189819
6441 1 1 8.60273 7.40405 1.89675 1.39484
1296 1 1 8.84987 5.91893 0.248793 8.53647
187 1 1 8.52012 5.74089 1.19622 2.01737
997 1 1 8.51636 7.03488 0.701973 2.58068
5812 1 1 12.8509 6.20322 0.938996 4.0174
1784 1 1 11.9923 3.64663 0.609715 0.78832
2197 1 1 15.0939 6.53239 2.04448 3.13761
469 1 1 15.4472 6.58507 0.64249 0.464144
6476 1 1 15.063 5.41999 0.862399 1.14302
7318 1 1 17.2822 5.4884 0.36091 1.53642
6561 1 1 18.8088 6.61843 1.6271 0.649227
7844 1 1 0.547426 5.84502 37.2914 1.6466
205 1 1 1.54406 8.68379 1.84274 0.662498
7570 1 1 0.784891 8.14144 0.570942 0.247139
357 1 1 2.58773 8.17563 1.67913 1.27858
750 1 1 2.50493 9.63421 2.56131 3.75619
922 1 1 5.82136 8.40842 0.303016 0.54409
174 1 1 4.94023 7.38909 2.10857 0.905993
7738 1 1 6.86792 8.8282 0.614448 1.03688
1681 1 1 8.63777 8.10388 0.0997541 1.06757
1001 1 1 9.14778 8.62441 1.52488 0.885088
7573 1 1 9.08254 7.18031 37.2493 0.276408
6907 1 1 9.77866 7.8711 1.23937 0.985389
7913 1 1 11.6183 7.51983 0.240925 0.865191
7548 1 1 13.9484 7.92958 1.62149 1.11194
79 1 1 14.9534 7.10584 37.2987 1.57188
7411 1 1 13.691 6.89191 37.0832 1.30793
669 1 1 14.1679 6.82085 1.27024 1.23656
6959 1 1 15.226 8.04968 36.6873 0.166996
7424 1 1 16.6169 6.56706 0.478423 4.01047
1401 1 1 17.6306 7.62151 0.619381 2.15013
875 1 1 17.8555 6.80784 1.29047 1.7978
6828 1 1 0.759175 7.12773 1.27191 1.39611
1596 1 1 1.49524 9.78435 2.39477 2.79354
6343 1 1 1.32685 9.69726 37.3316 1.34319
6767 1 1 3.68507 10.1155 0.851862 0.924884
7846 1 1 1.60255 10.7815 37.0428 1.28902
86 1 1 3.36842 8.79295 0.331496 0.95006
7144 1 1 4.38505 7.93981 0.357482 0.894285
7513 1 1 5.77116 8.71198 1.68235 0.738663
6380 1 1 7.78267 9.86296 0.492921 1.37925
6235 1 1 8.3742 8.80814 2.0477 3.12048
7002 1 1 8.64826 9.12353 0.0584508 0.478457
7643 1 1 9.46351 9.34503 0.914229 3.00943
7019 1 1 9.78111 8.60508 0.365853 0.34658
7943 1 1 12.8581 7.24876 1.06234 1.38244
543 1 1 11.8104 6.99117 1.60122 0.659243
5838 1 1 15.4513 10.4744 36.7082 0.735873
1120 1 1 14.3904 8.76773 2.09668 1.96336
600 1 1 16.1507 9.12497 36.5516 1.03931
2072 1 1 16.2766 10.7522 1.48518 3.81313
5857 1 1 17.3564 8.08227 1.64113 2.10614
736 1 1 18.5228 8.05823 1.14076 0.249466
7397 1 1 0.6777 9.3918 1.23359 1.36787
7800 1 1 18.4179 7.87536 37.2097 2.50165
7581 1 1 0.088079 8.7301 0.0944785 2.16562
6599 1 1 1.27067 10.3838 1.49929 0.412929
7567 1 1 2.57477 11.7005 36.9174 0.38274
439 1 1 3.49378 10.3428 1.87131 8.14778
1172 1 1 5.06972 11.2432 1.25519 0.266155
191 1 1 6.85972 12.5752 1.54928 2.06043
7065 1 1 7.3849 10.583 1.22999 2.08883
236 1 1 5.29536 10.1714 35.5439 4.15897
6933 1 1 7.50305 10.2125 36.2434 0.517572
238 1 1 7.68641 11.1937 0.523575 2.12908
574 1 1 9.38799 9.86672 36.9939 1.45771
6631 1 1 8.9337 10.7031 1.58521 9.46674
7949 1 1 8.17537 9.75146 36.8807 3.01615
3406 1 1 9.95095 10.3704 0.786139 0.472223
7834 1 1 13.3877 12.6921 0.938394 0.602666
1584 1 1 12.3243 10.3173 0.0146537 0.499519
932 1 1 12.3871 9.7092 0.938497 0.379703
627 1 1 15.7567 10.4353 0.438497 1.12647
1438 1 1 17.9613 9.12297 1.47906 1.80049
6752 1 1 17.6196 8.59262 0.528429 1.09548
991 1 1 0.747629 11.5955 1.30933 3.66728
7555 1 1 0.153219 10.4932 1.4113 1.50854
1793 1 1 0.215406 11.82 37.0563 0.137188
962 1 1 2.16188 12.4217 0.866679 1.06515
7060 1 1 2.59642 11.3688 1.01706 2.60805
340 1 1 5.35924 11.8681 36.8793 0.0393865
662 1 1 3.76968 12.7398 1.48531 0.933362
704 1 1 6.17166 13.9556 1.37229 2.35617
7351 1 1 8.55516 11.7664 0.549186 0.53374
2234 1 1 9.39572 11.7695 36.5773 1.34671
6693 1 1 10.4672 11.7545 0.322467 0.91595
7749 1 1 9.35354 11.2093 0.288729 0.0722517
2320 1 1 9.64588 12.1416 1.63818 3.10525
6723 1 1 12.7731 11.793 0.719617 2.13059
7497 1 1 14.3068 11.9528 0.527774 1.14613
1997 1 1 17.0653 11.9451 0.384477 6.26622
818 1 1 18.1354 12.4512 2.8873 0.660358
1399 1 1 18.1881 10.0427 0.368593 0.823818
924 1 1 17.7658 14.4115 1.04939 0.448128
6411 1 1 1.02442 13.8577 0.455787 1.35727
6464 1 1 1.02363 12.5176 0.719848 0.965379
7248 1 1 3.51881 14.5929 1.25745 1.39108
7404 1 1 2.2498 13.6747 1.66047 1.11753
7836 1 1 3.98092 14.1819 0.159388 2.40432
7457 1 1 5.06534 12.7949 0.0491285 1.34801
7174 1 1 5.36507 14.9498 1.58785 1.08111
163 1 1 7.8034 12.9368 1.14086 1.51949
970 1 1 7.03083 14.9166 1.29533 3.02467
678 1 1 8.99153 14.0362 0.689782 0.695713
64 1 1 8.70976 12.57 0.92337 0.616944
6399 1 1 10.3488 13.8968 0.862926 0.995077
386 1 1 9.99576 13.3331 36.8261 2.28303
6873 1 1 9.93541 12.6503 0.128841 0.130368
830 1 1 9.93377 13.192 1.57204 0.468804
2106 1 1 11.1896 14.1348 0.292702 1.69491
375 1 1 14.0209 13.678 0.506283 2.30654
209 1 1 14.8737 12.9047 36.4839 1.7674
5900 1 1 13.7801 14.4717 1.21445 2.54857
1749 1 1 14.9696 14.4598 1.0866 3.75183
711 1 1 15.4018 13.0387 0.7561 0.824246
7138 1 1 15.7224 13.5962 37.2229 3.9219
346 1 1 18.4771 12.436 0.389849 1.45176
918 1 1 18.7484 13.4115 0.75115 1.23632
1136 1 1 1.05522 16.3443 37.0319 0.844896
6637 1 1 1.81802 14.6166 0.85988 0.542317
7957 1 1 4.32528 14.5491 1.9502 3.01624
642 1 1 3.18143 17.2901 37.6434 0.0936915
639 1 1 4.51273 14.7558 1.01496 1.92708
569 1 1 6.13474 13.7877 0.238891 0.404343
6673 1 1 7.79028 15.4666 36.9462 1.11009
1729 1 1 8.1489 14.4972 1.33906 0.56761
504 1 1 7.66641 13.4702 2.00954 5.43669
7736 1 1 10.2473 15.5636 0.834773 1.40854
239 1 1 12.0562 12.5317 0.195988 1.15737
472 1 1 12.4257 15.716 0.618609 3.42623
2373 1 1 12.5174 13.2508 0.862684 0.806965
1186 1 1 13.4006 16.403 0.126508 1.76824
7011 1 1 16.214 16.594 0.687517 0.552438
7338 1 1 16.1224 14.6936 0.677896 0.565484
296 1 1 16.9894 15.5327 1.23065 0.506539
7977 1 1 1.18026 17.2105 0.0583457 0.478363
7863 1 1 0.951181 16.4741 1.65308 0.326237
668 1 1 1.87188 16.4306 0.621336 0.673306
1634 1 1 1.40308 17.6837 1.91066 3.29086
7097 1 1 2.93458 16.273 0.536716 1.10177
332 1 1 4.56586 15.6168 1.45171 0.985159
7300 1 1 6.20093 18.0645 37.2106 1.48334
7297 1 1 7.72663 15.3023 0.672057 1.44718
287 1 1 7.08043 16.9819 0.836945 1.02408
414 1 1 9.09232 17.1171 0.399441 4.42427
5509 1 1 9.70381 16.3787 0.769295 0.556212
1196 1 1 9.74496 16.6755 36.7399 0.876953
6228 1 1 11.2806 17.5574 37.4954 3.44451
7568 1 1 13.7233 16.9467 36.7537 0.374915
809 1 1 11.3314 15.8718 0.177939 1.34692
653 1 1 12.802 17.3841 1.04192 0.551292
6982 1 1 14.7608 16.6137 36.9818 0.496239
2506 1 1 15.0772 17.3277 1.14383 0.680813
579 1 1 16.2967 15.8132 37.314 2.41401
273 1 1 15.3893 16.1748 1.2329 3.7748
1216 1 1 18.4558 16.062 1.18441 0.298433
328 1 1 0.949308 18.3216 0.0676228 2.37954
647 1 1 2.73882 0.180759 2.18378 2.78678
1469 1 1 3.21338 16.3879 1.85464 0.644635
829 1 1 2.01583 0.524533 1.29263 0.643409
1573 1 1 5.63973 1.07494 0.168295 0.781008
758 1 1 4.73582 17.4216 1.4559 1.60896
6079 1 1 6.11837 18.5604 1.08868 1.26749
7613 1 1 6.33582 17.6124 1.44903 1.62966
6855 1 1 6.94068 1.12246 0.762079 5.1705
895 1 1 7.27517 18.6978 0.910068 0.555369
7452 1 1 10.6631 17.2588 0.812972 0.618381
7753 1 1 10.3898 18.0787 1.34153 3.26826
281 1 1 12.6783 18.1684 1.9908 0.249943
500 1 1 11.7901 18.0908 1.10794 2.29899
1413 1 1 13.967 17.8105 0.992197 0.145005
7529 1 1 16.649 0.105589 1.49966 1.58637
1999 1 1 18.222 16.6748 37.384 0.329865
1713 1 1 1.12638 18.2663 2.71666 0.0299354
643 1 1 3.60634 18.1559 2.39902 1.17176
1509 1 1 1.71593 18.4104 0.932685 0.128793
2026 1 1 6.48889 16.7226 2.31855 4.90914
1365 1 1 3.09167 2.09763 1.80611 1.97412
104 1 1 3.97173 0.113636 2.92163 1.72933
1750 1 1 5.56949 2.14673 3.29273 0.484734
1348 1 1 5.52791 1.18811 3.29699 1.10348
6581 1 1 8.49938 0.871597 0.931507 2.91298
6040 1 1 9.02192 1.89797 2.65813 0.89993
1140 1 1 10.28 18.7647 2.09857 0.956794
7028 1 1 11.8945 1.29708 3.49225 2.12624
7340 1 1 12.3929 0.0900584 3.30993 2.37606
7185 1 1 14.3299 0.114716 0.898861 1.62852
1339 1 1 15.1636 18.2381 1.98921 1.16998
1973 1 1 15.8791 17.0623 2.25362 1.8372
1041 1 1 15.3752 0.290368 1.15953 4.02133
1511 1 1 18.3135 0.665114 2.3609 0.808202
1607 1 1 18.8247 1.64687 2.79169 1.40936
3242 1 1 0.563009 0.607646 3.17474 0.764498
508 1 1 18.4529 0.79197 -0.00160696 2.53353
7679 1 1 0.626596 18.6878 1.35173 3.4395
1198 1 1 3.39176 1.16934 3.10921 4.07784
7718 1 1 2.57197 2.88857 2.16866 2.204
7773 1 1 3.95644 2.70091 1.75776 0.687723
547 1 1 5.52748 1.62571 1.09464 0.366375
7751 1 1 6.65793 0.462516 1.52296 0.398733
6866 1 1 6.41448 3.3081 3.73505 1.35111
108 1 1 8.88671 2.90642 3.36254 2.30839
6363 1 1 8.00846 1.94312 1.55793 1.6108
1661 1 1 10.5541 1.72766 1.27135 0.963103
6659 1 1 12.4194 2.32648 1.98694 0.934185
6241 1 1 11.0581 3.87485 3.30854 2.97007
1007 1 1 12.304 1.12595 1.82788 0.893146
3932 1 1 16.2885 3.63216 2.64507 2.51241
1928 1 1 16.2368 0.44913 2.50233 1.49476
3225 1 1 14.5591 1.80205 2.53371 4.37979
1591 1 1 17.3005 3.45432 3.19091 0.873386
1672 1 1 0.0812379 0.904603 1.37598 3.09148
31 1 1 2.68696 3.87186 1.51234 0.731849
2558 1 1 1.14734 4.07105 2.93194 1.25357
1045 1 1 3.14146 2.62127 0.848904 4.5466
6026 1 1 3.15777 3.08889 3.40129 2.89528
7785 1 1 4.29189 3.10315 2.87677 0.57642
6083 1 1 6.32504 3.6323 2.23544 1.12144
6605 1 1 6.02953 2.60804 2.56031 0.972097
7625 1 1 7.26817 4.1089 2.41997 0.868066
593 1 1 8.07225 2.59991 2.64358 1.15586
1381 1 1 8.72019 3.47247 0.359038 2.43558
354 1 1 8.87179 4.25317 1.97312 1.23955
7094 1 1 10.7906 5.9197 2.12162 1.15637
7719 1 1 10.3252 2.0889 2.40151 0.822109
726 1 1 13.7932 2.265 1.88849 2.37686
1270 1 1 14.501 2.98419 2.35601 2.2886
3071 1 1 16.4866 2.71849 2.11477 1.14859
874 1 1 17.6914 4.61355 3.19214 4.09875
7697 1 1 0.645222 3.09112 2.86707 0.892841
6423 1 1 17.3564 2.53962 1.22402 0.572437
982 1 1 2.12072 5.23143 2.6798 1.69368
602 1 1 1.83111 6.35089 1.39914 2.50226
1310 1 1 2.81768 4.30863 2.5637 1.89712
1717 1 1 3.59239 4.6243 1.65558 0.406552
1279 1 1 4.50393 4.02466 1.65675 0.0961942
7879 1 1 4.27282 4.4036 3.7622 3.40264
7612 1 1 5.909 4.33438 3.50944 3.2362
1273 1 1 4.9077 4.16219 2.94436 1.60192
6424 1 1 5.81388 4.53214 1.76308 1.78223
1237 1 1 9.62195 4.58365 0.966691 1.02512
604 1 1 9.84377 4.3327 2.25995 2.22345
7466 1 1 12.272 5.42697 3.4435 0.21666
742 1 1 15.8248 5.34396 4.00237 1.69081
7468 1 1 15.6222 4.44792 2.00953 0.135069
126 1 1 15.4207 3.51544 1.26384 0.438711
1539 1 1 15.9519 5.40034 1.43942 0.627854
1648 1 1 15.6205 6.09853 3.14656 0.391098
7633 1 1 17.3079 6.43472 3.50231 1.76939
6640 1 1 0.0291543 5.32928 3.44998 1.13986
1715 1 1 0.890025 6.05056 1.69 0.67663
966 1 1 1.62234 7.4187 2.03668 1.30066
7944 1 1 2.78264 6.72622 1.63238 2.90372
6987 1 1 3.28258 6.17974 0.701897 0.418953
2559 1 1 3.66764 7.09865 1.98374 1.27359
6815 1 1 4.22881 7.54979 1.27326 0.938104
615 1 1 4.3785 6.33627 2.11546 0.471493
2608 1 1 7.30399 6.12244 1.51836 3.52336
7472 1 1 6.76073 5.19222 1.81817 1.93282
7482 1 1 9.8309 5.39594 2.08148 5.02093
1224 1 1 10.9082 7.04515 2.72188 0.853404
1790 1 1 12.1843 6.68597 3.5608 2.70325
277 1 1 8.47243 5.2314 2.2504 1.50915
6497 1 1 7.47338 7.70672 1.13525 2.25752
6044 1 1 13.4147 4.98535 2.25796 1.60751
1537 1 1 13.4003 6.19203 2.79702 0.651547
486 1 1 10.8295 6.94294 1.25777 2.13163
374 1 1 14.2971 4.2034 2.57892 2.08389
1377 1 1 15.0942 5.43168 2.00882 1.01285
223 1 1 14.2908 7.95457 2.80298 1.10126
651 1 1 16.2141 6.38147 2.10918 0.335225
235 1 1 17.3869 6.20562 2.33542 1.58334
573 1 1 18.3609 5.78585 2.63489 0.57501
7358 1 1 2.01958 8.27362 3.0327 1.59408
5817 1 1 2.79917 9.37671 3.57285 2.62801
158 1 1 3.53464 8.58566 2.68894 0.376181
842 1 1 4.40272 7.34756 2.90099 0.784482
1751 1 1 6.47105 7.79655 1.2793 1.71206
6253 1 1 8.55365 7.2081 4.05789 0.640103
8000 1 1 5.64829 5.50068 2.44919 8.19551
1069 1 1 7.08335 8.71876 1.63476 4.42
1217 1 1 8.34902 8.654 0.95215 1.57984
2054 1 1 10.1511 9.07353 1.58002 3.11933
7644 1 1 10.0089 6.6027 1.73155 0.624998
21 1 1 10.3869 7.61982 1.95277 0.961051
675 1 1 13.4546 8.05343 3.32733 0.919914
1193 1 1 15.1695 7.60787 1.58284 2.28953
498 1 1 14.7595 8.95643 3.09582 3.78934
140 1 1 15.2947 8.28287 2.31255 1.65701
550 1 1 14.9271 8.75736 0.103383 0.931808
2587 1 1 16.3011 9.44326 0.18298 4.88625
622 1 1 16.7786 7.17851 1.47122 1.24436
645 1 1 18.442 7.50437 2.02857 1.7139
6675 1 1 17.4539 7.28761 2.15875 2.20407
7966 1 1 0.429676 9.96827 2.32386 0.872559
1290 1 1 2.57115 10.3538 1.41142 1.82887
7803 1 1 3.60166 9.401 2.01923 2.83433
7731 1 1 4.46589 8.52139 2.16643 1.08088
7841 1 1 2.55489 10.6171 2.79357 0.104453
6578 1 1 5.84065 9.4746 2.34544 0.510342
1264 1 1 7.77083 8.29636 37.2855 1.61331
6665 1 1 6.10662 9.45081 1.08204 0.896953
7721 1 1 7.20882 9.64962 1.98488 0.322388
568 1 1 9.67616 9.2681 3.67156 1.84418
610 1 1 7.48453 7.60201 2.22532 1.31673
955 1 1 11.6897 7.84921 2.15038 1.29138
738 1 1 13.3171 9.08656 3.20392 1.01749
6686 1 1 13.7097 9.79841 37.5158 3.4922
7634 1 1 13.833 11.1947 3.56101 1.92877
7795 1 1 17.3701 11.0121 1.24297 2.66001
38 1 1 16.1412 10.0942 2.23143 1.06544
423 1 1 17.4376 9.66924 2.42475 3.61642
7432 1 1 16.2757 8.85856 2.40039 1.21312
1360 1 1 18.5358 8.5262 3.95102 1.72313
3472 1 1 0.779259 10.9299 2.52658 0.320216
1677 1 1 0.275179 8.43764 2.03355 8.6935
663 1 1 18.0905 8.83814 2.61074 2.62174
7851 1 1 1.98518 12.9279 3.01422 0.779616
2638 1 1 0.97294 11.7106 3.18174 1.17406
1917 1 1 2.49335 11.6934 3.48009 1.10689
1318 1 1 3.08252 11.2636 2.14369 1.66348
452 1 1 3.84165 10.6601 2.87297 0.931648
2357 1 1 4.60716 9.04963 1.14038 3.26093
1863 1 1 6.68621 12.1805 0.555259 1.42709
630 1 1 7.87694 11.3897 1.81055 0.386971
1968 1 1 9.92117 11.1057 3.97873 1.31352
1504 1 1 10.4971 9.2433 2.99245 1.821
2150 1 1 11.0659 9.55179 1.74121 0.424653
708 1 1 13.5374 10.6035 1.10449 0.739234
201 1 1 14.6986 12.1884 2.75908 0.280945
969 1 1 17.3308 10.6898 2.32077 0.735026
1143 1 1 18.4672 11.3045 1.94779 0.685619
7128 1 1 0.408398 12.3829 3.81761 1.53709
300 1 1 1.8891 11.4619 1.96811 2.99437
7729 1 1 0.223241 15.2169 2.84106 0.234155
1727 1 1 3.40687 12.5451 3.49833 2.57634
133 1 1 4.90883 11.5953 2.49739 0.603998
1528 1 1 6.25627 13.264 2.51254 0.78997
945 1 1 6.07184 11.2326 2.04844 1.71283
1210 1 1 6.15638 11.467 3.0045 0.224835
6584 1 1 6.90385 12.182 2.86103 3.33973
342 1 1 8.35612 12.3403 2.42695 1.50494
1385 1 1 10.22 10.3786 2.02413 3.10514
433 1 1 12.5935 10.8013 0.937803 1.75574
6939 1 1 10.8097 10.9176 1.09792 0.435013
778 1 1 10.907 12.4332 1.31845 1.85973
6567 1 1 14.443 11.9336 3.78533 0.0348339
7893 1 1 12.3569 11.2585 1.99143 1.87719
596 1 1 16.0946 12.7149 3.46581 0.821506
1189 1 1 15.7959 12.0623 1.95314 0.572733
7089 1 1 16.2586 13.562 2.45195 0.0698261
1836 1 1 17.4593 11.763 1.82083 1.74872
1280 1 1 18.3424 10.5308 2.98293 2.53097
259 1 1 0.28623 13.4027 2.83395 0.674309
7047 1 1 1.91501 14.1137 37.6043 1.92207
234 1 1 3.12184 13.2868 0.752288 3.96045
1448 1 1 0.741092 14.2465 1.79936 0.448267
7961 1 1 5.8178 12.6265 1.68164 0.821277
6379 1 1 5.43127 13.594 2.04755 1.16246
299 1 1 4.6145 13.6367 1.30783 0.512574
481 1 1 5.89249 14.4192 3.03548 0.172804
7678 1 1 7.60277 13.2288 2.94632 1.08535
7035 1 1 8.2765 14.911 3.22235 0.77859
769 1 1 9.92749 11.6024 2.9716 2.53715
7266 1 1 12.1636 12.3924 2.82152 1.04648
7856 1 1 12.2577 12.5201 1.53172 1.60369
338 1 1 13.2128 15.0642 1.96936 1.20838
1617 1 1 13.0688 12.5361 2.2076 3.15219
1017 1 1 14.0802 12.5341 1.97355 1.11357
629 1 1 15.5822 14.2299 1.84235 2.36544
7999 1 1 16.9041 12.4461 2.58385 1.35386
255 1 1 16.7584 13.3613 1.57471 1.60511
2974 1 1 17.0166 14.2367 2.45717 0.268724
6833 1 1 17.6336 12.802 1.47323 0.704569
1042 1 1 1.17657 15.586 0.48321 1.57855
7772 1 1 0.298713 15.6084 1.85785 2.05665
1340 1 1 0.977031 15.8778 2.76323 3.11986
6459 1 1 0.135781 16.6559 2.24483 0.32738
1676 1 1 1.11239 15.0991 1.42568 2.68709
4804 1 1 2.97505 14.3923 2.20859 0.346556
1651 1 1 5.44082 15.4268 2.44469 0.425075
7405 1 1 7.51344 15.1334 2.28626 0.922836
1416 1 1 9.19909 15.2867 0.445849 2.56332
6321 1 1 8.21738 16.2881 1.99392 1.36474
815 1 1 7.2487 14.408 4.37954 0.407364
2347 1 1 10.4429 13.9193 2.35449 2.34066
2046 1 1 10.6659 15.0458 2.29065 2.77888
7950 1 1 13.7271 15.7452 3.8894 1.73384
1077 1 1 13.174 16.0754 3.06611 1.92484
89 1 1 11.2532 15.7398 1.90524 0.728982
7444 1 1 14.3329 14.0626 4.94707 2.62178
1269 1 1 14.2225 16.2207 1.35181 0.441047
1110 1 1 14.0692 14.7546 2.45602 1.01209
336 1 1 14.999 15.052 2.79126 1.97126
1614 1 1 14.318 15.2246 1.44566 0.83454
1170 1 1 16.5488 14.3494 1.54501 2.45215
1367 1 1 16.1505 15.8284 1.90562 0.601674
1984 1 1 18.1631 15.0993 1.91209 1.11833
1652 1 1 18.58 16.5025 3.21008 3.68892
5605 1 1 1.15821 17.2537 3.07136 2.56405
157 1 1 0.67047 16.4129 3.92642 1.28571
549 1 1 0.634862 17.5542 0.992573 1.17788
1128 1 1 3.98694 14.5737 4.44363 1.21543
3499 1 1 3.36079 15.5563 1.26262 1.047
6280 1 1 3.51712 15.4024 2.3181 1.15972
687 1 1 6.39563 15.6817 2.68992 2.78584
7303 1 1 5.50651 16.4851 2.20075 0.421191
6688 1 1 7.1559 16.1112 1.80192 1.31826
898 1 1 9.62102 14.6206 2.47968 1.56605
1453 1 1 10.6363 16.4143 1.46352 2.66417
6582 1 1 10.398 17.0296 3.35715 0.975848
343 1 1 13.1473 16.2884 1.12145 0.178851
990 1 1 13.2767 16.9806 2.0316 1.57875
1139 1 1 13.9764 16.2623 2.47138 0.0302622
1604 1 1 14.8203 16.0232 3.41676 4.40353
1070 1 1 15.7242 17.2767 3.50905 0.575885
7826 1 1 -0.010814 17.6037 1.78787 2.01004
7847 1 1 17.8248 17.3143 1.51323 1.569
7951 1 1 2.94173 18.0436 3.23041 0.247047
18 1 1 0.225745 18.5298 2.40185 4.62083
7454 1 1 2.47216 16.8176 2.37207 0.983471
531 1 1 4.51051 17.4098 2.67982 1.20704
1147 1 1 5.53199 17.5203 2.26747 4.11476
1466 1 1 8.42673 17.3357 2.24857 1.67783
490 1 1 7.28066 1.24931 2.17715 0.81078
32 1 1 7.26549 17.2921 1.98943 1.36951
62 1 1 9.00169 15.6129 3.53187 0.926605
961 1 1 10.4558 17.5861 2.49999 1.27396
7821 1 1 9.38133 17.9786 3.15269 0.590155
55 1 1 11.416 17.0059 2.0807 4.60852
1616 1 1 11.2621 18.1285 2.48748 2.16435
505 1 1 11.9067 16.9756 0.690789 3.59879
2348 1 1 14.7449 16.8567 2.2622 1.26633
409 1 1 13.3572 18.7449 0.72752 1.71125
6824 1 1 16.6583 0.120681 3.81296 2.2189
670 1 1 16.8116 17.408 2.49867 0.515421
6430 1 1 18.2063 18.5469 1.10062 2.05002
7434 1 1 17.6382 2.2247 4.74038 0.132463
910 1 1 0.0912972 2.13171 4.77184 1.62646
7947 1 1 1.54467 1.33178 2.90899 1.26276
7451 1 1 1.33226 0.39791 2.30824 1.22071
1902 1 1 2.92805 2.17962 3.66493 1.76413
2365 1 1 5.39127 18.4959 2.17717 2.07217
656 1 1 6.49244 1.79788 4.12073 1.38776
902 1 1 5.4392 1.17099 4.63448 0.731467
7818 1 1 10.3374 0.175787 4.90129 0.962457
1781 1 1 8.53123 0.175724 2.554 2.84549
676 1 1 9.00977 15.4846 1.99417 1.67018
2204 1 1 10.7982 1.07394 2.03836 3.8943
2208 1 1 11.3378 0.189437 4.89167 1.54244
164 1 1 11.09 0.62415 3.74938 0.692381
147 1 1 12.1742 17.7306 3.06964 0.493996
1473 1 1 13.863 18.7352 2.15033 0.353203
7669 1 1 15.0414 0.567137 2.48282 2.55898
807 1 1 17.5697 0.537449 3.05756 3.64427
7830 1 1 16.7193 1.66487 2.33046 1.47036
881 1 1 17.2426 2.19121 3.59482 1.12412
2134 1 1 18.4002 2.59832 3.43348 0.443664
1909 1 1 0.708857 1.78476 3.64066 1.69249
2066 1 1 1.34058 2.40348 4.46262 0.407519
7188 1 1 1.54692 3.97131 4.56653 0.509288
1654 1 1 2.60304 1.691 2.62058 1.42275
686 1 1 2.01663 4.87237 4.02024 0.20522
96 1 1 2.49943 3.96709 4.2859 0.398267
1322 1 1 5.07407 1.94728 2.10816 2.55921
148 1 1 5.70817 2.53035 4.26026 4.08554
729 1 1 3.90337 1.93733 3.0037 1.09978
6922 1 1 8.97348 1.63103 4.34033 0.212635
1543 1 1 8.45924 0.5454 3.59832 0.11528
7934 1 1 6.91646 2.36704 2.30777 2.54861
544 1 1 9.13405 0.813747 2.07214 1.13258
6942 1 1 8.03127 1.69307 3.4718 1.22552
61 1 1 10.1862 0.95298 2.96591 1.91299
1291 1 1 11.3919 1.29461 4.49761 3.98376
822 1 1 13.726 0.374091 3.42121 1.27834
479 1 1 12.5001 1.93536 4.09341 0.196828
1239 1 1 14.094 3.43508 3.22809 2.85998
149 1 1 16.3831 2.60546 3.33727 0.614831
772 1 1 15.6463 1.81906 3.35526 1.675
1826 1 1 13.5608 2.2074 4.2868 0.849858
519 1 1 15.1158 2.89746 3.25846 0.229455
914 1 1 17.2836 4.154 3.9719 5.03374
1354 1 1 17.7844 1.9879 2.14292 0.0618127
965 1 1 18.1216 3.13151 5.05147 0.797832
7887 1 1 18.4987 3.19173 1.58775 0.908973
845 1 1 2.08275 3.29758 3.42333 2.1663
1738 1 1 2.0969 2.3426 3.13501 4.38653
109 1 1 1.70219 6.71471 3.54832 1.84764
692 1 1 3.88357 3.49045 4.74674 5.27189
7366 1 1 5.14398 3.50988 3.91887 0.623892
7215 1 1 5.61794 3.43213 3.06753 4.0264
7861 1 1 8.70498 2.69761 4.37744 4.1033
125 1 1 7.43299 3.86761 3.49205 0.561599
5799 1 1 10.9283 1.78719 3.36232 0.700014
1302 1 1 9.89835 4.8075 3.36987 0.450638
2191 1 1 12.5581 3.02178 3.1632 0.269795
7322 1 1 11.8224 2.6821 3.93132 1.28265
7532 1 1 13.0718 2.42832 5.1885 1.11894
98 1 1 13.0519 3.43685 4.91207 0.251615
1450 1 1 15.0074 3.21189 4.28968 0.118572
7758 1 1 16.7119 2.71018 4.50176 0.762692
588 1 1 15.066 4.3699 4.07581 0.432204
2793 1 1 16.1351 4.39087 3.38053 0.560167
1336 1 1 15.8886 3.51296 3.81629 0.404522
7595 1 1 18.2457 3.48966 2.87547 1.68096
7202 1 1 0.246195 3.98068 3.21483 0.992128
115 1 1 18.4943 3.71699 4.16973 2.32751
774 1 1 18.5979 5.15504 4.55089 1.42582
7791 1 1 0.611883 5.13986 2.06926 1.67755
2033 1 1 2.37228 6.03757 4.55236 0.929498
2044 1 1 3.08076 4.48861 3.60108 0.866336
799 1 1 2.8337 5.0613 4.78516 0.165006
489 1 1 3.72093 4.3261 2.74951 2.26384
188 1 1 6.98146 6.36682 2.70449 2.41754
580 1 1 6.91984 4.57363 4.37423 1.21117
7251 1 1 6.60777 4.6581 5.32372 0.17822
1850 1 1 8.20324 4.74303 3.56846 0.809182
6566 1 1 8.97022 4.34533 4.11927 1.15133
5747 1 1 8.77642 4.02725 2.96051 1.41825
6996 1 1 9.72763 3.57398 3.75028 0.600986
1025 1 1 9.97814 4.33538 4.47543 2.97558
1585 1 1 11.2883 5.04015 3.55706 1.22399
6470 1 1 13.6707 5.31709 3.61117 2.84077
7782 1 1 13.7421 6.58539 4.91518 1.10941
2139 1 1 15.376 4.96776 3.04767 1.81179
1422 1 1 14.8104 6.00774 3.90226 0.548164
1213 1 1 15.5389 4.79533 5.11865 1.68415
7579 1 1 14.3204 7.09185 3.30546 1.02262
6719 1 1 16.6608 5.28025 3.01778 0.169555
7659 1 1 18.0429 6.12092 4.64184 5.86729
383 1 1 18.7049 4.17262 1.81407 1.10243
72 1 1 1.87293 6.40432 2.36931 1.42358
913 1 1 18.2753 6.23832 3.67391 1.02734
608 1 1 2.59017 5.60589 1.77636 1.82701
6159 1 1 1.4897 7.29077 4.70539 4.95372
509 1 1 4.18847 5.20406 2.53033 0.466829
2917 1 1 2.81324 7.42313 2.64307 3.71494
7601 1 1 2.73093 5.91437 2.8158 0.1062
3 1 1 4.11751 7.47559 3.97332 0.654876
1002 1 1 3.41832 5.88545 4.32253 0.942064
217 1 1 5.37672 6.97483 5.12074 0.560098
6477 1 1 6.31275 7.35499 3.08519 0.971937
985 1 1 5.49455 6.61661 3.95823 0.772529
7387 1 1 8.85109 5.37401 4.07055 0.485753
7683 1 1 7.96026 6.74756 2.58351 1.05941
7685 1 1 7.80247 6.18939 4.16837 3.03119
2855 1 1 9.79119 7.47049 3.80647 3.00187
6619 1 1 12.3976 8.62779 2.09256 1.61166
7850 1 1 11.107 6.08997 4.91203 0.0602238
7725 1 1 12.5952 6.67615 4.79854 0.517954
1203 1 1 15.2671 7.14192 2.85899 0.480457
102 1 1 17.8355 7.56469 4.15389 2.10311
538 1 1 0.625164 7.13359 2.53322 0.599247
1757 1 1 18.7566 7.87695 3.05521 0.294957
802 1 1 1.46025 8.77582 3.6809 3.1546
926 1 1 0.994565 7.97025 3.42492 1.24932
1275 1 1 2.48724 8.10194 4.44936 0.517146
7326 1 1 4.51016 8.56625 3.57062 0.740686
7242 1 1 3.31542 8.11602 3.74291 1.94685
153 1 1 5.43767 8.05809 3.86865 0.865558
1547 1 1 5.79326 9.11406 3.36321 0.0112571
6971 1 1 5.36865 7.72896 2.92876 0.833818
1475 1 1 9.50351 7.23845 2.49789 0.488319
408 1 1 6.45704 7.71166 4.02669 4.34732
7335 1 1 9.80662 8.43795 2.50607 2.1443
1809 1 1 10.9348 8.03355 3.87706 1.44742
557 1 1 13.1997 7.63996 5.113 0.55672
2798 1 1 16.6109 6.91006 3.97998 0.924104
2151 1 1 16.7553 8.01558 2.7108 0.826757
1079 1 1 0.82158 8.98908 2.71691 1.36494
1728 1 1 1.71086 10.8207 3.71954 0.438039
634 1 1 2.45967 11.365 4.45769 0.939033
1005 1 1 1.76944 9.75916 3.34088 1.24902
715 1 1 5.06877 9.9004 3.51439 1.71041
440 1 1 4.97078 9.05123 2.83598 0.428421
345 1 1 6.71431 9.79056 3.63134 1.86072
154 1 1 7.54158 8.7873 2.74159 0.428541
1194 1 1 9.86592 8.04987 5.09077 0.982343
1295 1 1 9.30298 10.0111 2.6031 4.61289
825 1 1 11.4286 10.1762 4.78197 0.472928
1833 1 1 10.9825 10.9569 3.66427 2.20953
572 1 1 12.542 10.3003 4.02307 1.96252
7739 1 1 15.57 11.7032 2.92639 1.95313
1802 1 1 13.6553 9.36337 2.05 2.4878
7085 1 1 15.3667 9.47432 2.29479 2.40939
790 1 1 15.788 8.99624 3.44119 0.845844
667 1 1 16.7037 9.40774 3.25618 0.93743
1709 1 1 17.3117 9.87663 4.53069 3.05581
3565 1 1 17.6666 10.9426 4.53713 4.66965
1287 1 1 1.2979 11.6856 4.40589 0.358962
1349 1 1 3.79008 9.57565 3.32639 0.780686
6563 1 1 3.77146 12.6724 2.61584 0.678839
7130 1 1 2.05493 12.1361 6.44877 3.14683
6196 1 1 4.43515 9.82662 4.43392 2.49505
146 1 1 5.86635 10.9805 3.87575 2.48351
840 1 1 4.48057 10.7617 3.79671 0.33443
5697 1 1 5.73505 10.2765 1.76419 0.664755
529 1 1 6.40863 8.36414 2.54043 0.266142
95 1 1 6.98158 10.8662 2.14133 0.319813
7459 1 1 5.07202 10.614 2.71379 4.45402
823 1 1 8.78804 8.97371 3.14724 2.8971
487 1 1 8.3886 11.106 3.08758 0.473169
7139 1 1 8.17279 10.3415 2.50843 0.302197
1940 1 1 9.54189 10.4302 5.06565 4.61318
1487 1 1 8.97171 10.4418 3.50179 1.3412
416 1 1 11.8557 9.44716 3.8417 0.27873
1199 1 1 12.091 10.2438 2.47655 0.824783
7156 1 1 14.0001 11.6546 4.89383 0.751
7004 1 1 16.3214 10.8599 4.49726 1.63514
1426 1 1 16.184 9.49254 4.43453 0.372404
1000 1 1 0.735514 10.0516 3.40486 1.61942
2621 1 1 18.715 9.58956 3.73994 0.572983
6762 1 1 1.08587 12.6796 2.44859 2.31487
2329 1 1 2.95015 11.9432 5.67913 4.23177
7717 1 1 3.74207 12.3768 4.69891 0.0717187
7755 1 1 4.16791 13.8661 3.07721 2.6172
6842 1 1 4.42938 12.155 3.36427 0.15748
699 1 1 6.13904 12.5885 3.75738 1.33183
2732 1 1 7.15101 12.6879 4.20786 4.16553
7704 1 1 7.96884 12.3541 3.49346 0.0698874
1920 1 1 11.8167 11.6503 5.23861 2.8539
640 1 1 12.4516 11.6665 3.66084 1.08057
7531 1 1 12.9476 12.1587 4.99376 0.0770066
221 1 1 11.0675 10.7145 2.53016 2.94735
1100 1 1 13.8637 13.5954 3.86313 0.262996
7798 1 1 13.0071 10.9689 5.16794 3.62217
7040 1 1 15.404 13.208 2.7333 2.67548
1493 1 1 16.5126 11.1326 3.05389 1.7347
1184 1 1 17.0958 11.9687 4.20324 2.80482
888 1 1 16.4222 13.3364 4.19547 1.45647
1024 1 1 0.107993 10.9163 4.15192 3.60862
986 1 1 18.4849 11.9109 4.77691 1.47004
2277 1 1 0.133171 13.5452 4.43633 2.69198
204 1 1 18.779 15.5116 3.87385 1.32272
1233 1 1 18.4634 13.0596 3.66669 1.84898
203 1 1 1.20488 13.7332 4.03952 4.96219
7621 1 1 4.80873 14.6456 2.92969 0.784401
178 1 1 2.97273 13.7568 3.51274 3.58309
7811 1 1 5.02245 12.7603 2.43999 1.67605
584 1 1 5.17477 13.083 3.49893 2.77583
245 1 1 6.46051 15.4461 4.08083 1.81443
1505 1 1 6.01516 12.4935 5.06544 1.94302
1853 1 1 6.31531 13.4252 4.48719 0.18524
7489 1 1 8.30641 13.8651 3.76958 0.386635
906 1 1 9.3551 12.8889 2.56293 2.24359
2032 1 1 10.6117 13.5564 3.74563 0.34684
2126 1 1 12.3659 13.5762 2.51949 0.374274
6946 1 1 13.1261 12.5562 3.96756 2.00215