ITEM: TIMESTEP
3000
ITEM: NUMBER OF ATOMS
8000
ITEM: BOX BOUNDS pp pp pp
0.0000000000000000e+00 1.8820720577620570e+01
0.0000000000000000e+00 1.8820720577620570e+01
0.0000000000000000e+00 3.7641441155241139e+01
ITEM: ATOMS id mass type x y z v_temp
351 1 1 -0.00443964 0.984518 1.70622 1.29186
1198 1 1 3.6428 0.255701 0.608162 1.61146
1116 1 1 5.3082 0.849971 -0.0147305 0.623841
6280 1 1 1.32216 18.6298 37.5403 1.48116
6076 1 1 4.3084 18.4857 32.8064 0.955278
7613 1 1 5.45151 18.5622 2.18697 1.64996
775 1 1 9.16674 1.71104 0.659547 1.60322
6363 1 1 6.6233 2.07012 37.1259 1.05684
175 1 1 7.79897 17.3828 0.0995901 1.07889
934 1 1 10.1226 0.651571 37.3737 1.4067
1416 1 1 7.35024 17.5076 1.5717 1.03675
6582 1 1 12.1039 16.8934 2.65085 0.551284
1139 1 1 11.965 0.2777 37.0492 1.7039
7873 1 1 9.59433 17.1127 36.4241 0.0666561
352 1 1 15.8307 0.124019 35.5031 1.29075
1377 1 1 14.6538 4.53979 0.771928 1.90586
7568 1 1 12.1226 18.1624 0.332491 0.501195
1186 1 1 14.7656 16.6377 2.33936 2.22469
1265 1 1 14.2566 1.49287 36.8476 2.08208
126 1 1 16.6441 0.0908624 3.29254 0.84845
791 1 1 17.5846 1.99935 37.4987 0.540546
1999 1 1 0.0304462 15.4633 1.62936 0.901075
383 1 1 1.09301 3.08764 1.9542 0.748919
7930 1 1 0.0961946 1.5141 0.758944 1.30959
6845 1 1 16.3033 1.93576 0.935465 1.83895
31 1 1 0.957958 3.76049 4.41714 0.817064
1739 1 1 2.38047 0.810063 0.305054 1.23702
7604 1 1 4.52892 1.55662 0.53035 2.17538
155 1 1 6.29983 18.6789 37.3489 0.853261
7785 1 1 4.90293 3.17085 2.98072 2.74246
1446 1 1 7.94205 0.728673 0.506252 0.325173
217 1 1 7.51948 4.79167 0.945474 0.335978
418 1 1 9.13469 3.60576 3.43497 0.215612
726 1 1 9.87118 2.69339 2.05147 0.940359
2348 1 1 11.7675 1.12077 2.82263 2.21376
1333 1 1 9.6672 3.19611 0.658435 0.725123
515 1 1 11.1787 1.15997 1.50287 0.181297
7745 1 1 11.8846 0.793869 0.612419 0.610492
1270 1 1 12.2076 1.49791 1.79786 1.74987
6850 1 1 13.6591 2.60091 0.458999 1.1505
1037 1 1 17.9818 3.07079 0.221037 0.123486
1315 1 1 16.9412 17.5383 0.160544 0.702759
6006 1 1 2.16851 3.05374 0.875236 0.246159
508 1 1 0.328878 2.48863 0.469539 2.62952
1045 1 1 0.0164454 3.7042 1.23331 0.319809
875 1 1 1.10181 7.94036 36.5602 4.16904
7718 1 1 3.11692 4.66435 0.30177 1.15437
6152 1 1 4.87236 6.32732 0.760259 1.24913
1348 1 1 5.7709 3.24518 3.72105 0.091487
6026 1 1 3.82716 5.15017 3.45893 6.01914
1850 1 1 6.50328 3.10879 2.08584 2.81508
1381 1 1 8.22907 6.30708 1.28821 3.15275
7861 1 1 8.14286 3.93467 2.53194 1.62001
7032 1 1 11.8008 3.2768 0.53947 2.03697
1661 1 1 10.0498 2.78942 4.15921 0.46757
7588 1 1 12.3224 6.18484 35.7531 3.29394
6060 1 1 11.2169 3.79199 3.40863 2.66646
1806 1 1 13.6129 3.41945 37.4294 1.66842
7155 1 1 12.9009 4.85227 1.26552 2.01971
437 1 1 10.6438 3.48125 0.740066 0.948959
7301 1 1 14.7172 0.851946 0.0181898 0.800453
2221 1 1 16.5641 2.17571 35.7841 0.956552
7468 1 1 12.9696 2.93272 2.04261 0.690777
5355 1 1 16.467 3.14506 0.835169 1.24782
223 1 1 17.1923 5.14971 0.931271 1.64698
2033 1 1 2.07357 4.32536 3.99757 0.199085
1401 1 1 0.895629 6.3795 35.6165 0.996307
7697 1 1 3.23045 3.44593 0.409351 0.318107
936 1 1 2.9068 4.54999 1.87916 5.09223
7904 1 1 4.41329 4.37356 35.81 0.696406
582 1 1 6.85681 5.20142 36.6771 3.28558
6922 1 1 8.59813 3.13931 1.52709 0.455725
7748 1 1 6.38424 4.42441 35.9675 1.2825
7387 1 1 6.9501 6.81799 1.50261 3.54193
6703 1 1 11.1844 2.68552 37.3203 0.796421
6551 1 1 11.6247 5.22266 1.31735 2.49318
7408 1 1 9.96022 5.95314 0.301265 1.42879
6044 1 1 13.4415 5.84495 1.09996 2.86745
271 1 1 14.2654 6.13589 1.67084 0.723071
7320 1 1 12.6713 2.45004 35.7736 1.20235
7115 1 1 13.1341 4.51065 37.6093 0.997156
1329 1 1 14.4887 5.66769 35.0626 1.1646
103 1 1 15.4733 5.91262 37.0886 0.520834
7091 1 1 16.2212 5.47188 36.3096 2.15917
7717 1 1 1.02532 9.86931 2.32581 1.70455
6161 1 1 1.91855 6.84436 35.8714 1.16473
137 1 1 18.4483 5.54249 1.79349 0.497251
7507 1 1 2.39338 5.3998 35.6701 3.93471
1409 1 1 0.471285 4.69987 1.81854 0.311065
7942 1 1 1.77595 8.04161 0.0898224 0.332178
6971 1 1 5.46719 6.77539 2.27888 1.0367
72 1 1 1.19589 7.11969 1.85652 1.03599
190 1 1 4.59891 6.31374 1.76916 1.93718
6605 1 1 5.66 5.55316 2.01796 0.852875
7215 1 1 4.39223 4.2776 3.36023 0.0805486
294 1 1 6.07379 8.09592 36.8918 2.65922
7944 1 1 2.40871 6.86352 2.36745 3.10153
5747 1 1 5.39657 6.00383 3.88957 0.367553
429 1 1 7.65442 9.03087 0.417728 0.325906
7094 1 1 9.23014 7.0208 2.72996 1.0972
21 1 1 9.25016 7.35826 37.6117 1.93954
61 1 1 9.6248 4.92604 1.99086 1.49072
6619 1 1 14.1163 7.60607 3.15044 1.3491
550 1 1 12.3591 6.88723 2.42551 0.865853
533 1 1 7.75783 5.03545 3.97711 2.32265
1664 1 1 13.0006 7.17751 0.4449 0.47274
486 1 1 14.8137 6.61465 2.79932 0.230116
591 1 1 13.7183 6.15757 3.82955 1.44606
164 1 1 11.2715 5.42007 2.24671 0.897
762 1 1 16.894 8.46113 37.5356 0.178542
6476 1 1 13.8164 7.49487 37.3734 2.74136
5857 1 1 18.3251 8.24675 0.682733 0.227448
354 1 1 8.00397 6.9898 0.14352 2.17447
6987 1 1 2.51685 5.69982 0.452419 0.491246
6874 1 1 6.5233 7.8997 1.36473 4.68317
1415 1 1 5.18021 7.99982 0.564373 3.24731
615 1 1 7.41619 9.33551 2.31729 0.0544931
7740 1 1 7.35695 8.60966 36.3265 0.728945
7958 1 1 11.0809 7.51495 36.1088 1.90665
973 1 1 10.6025 6.38911 1.06836 4.61434
6463 1 1 7.13209 7.96449 37.5814 0.225249
91 1 1 15.2041 7.27172 36.5456 1.1869
1193 1 1 13.0132 8.76123 0.116947 1.63575
276 1 1 15.6892 6.80011 0.41052 1.70009
5649 1 1 1.46643 9.56275 0.478162 0.299039
371 1 1 16.6521 5.97096 0.269125 2.19747
1360 1 1 0.854387 7.55128 0.506092 2.20741
6196 1 1 0.937711 8.47882 2.76369 0.0414249
6762 1 1 18.5034 13.8284 2.93739 1.64531
6126 1 1 5.63023 12.0022 35.1167 2.44186
834 1 1 3.12319 10.5138 3.83541 2.90557
7326 1 1 5.30911 7.97409 2.59064 2.50075
1681 1 1 4.69002 8.4494 1.73023 0.523946
6584 1 1 6.8287 10.2176 1.94333 1.59236
7065 1 1 5.99 10.105 1.40212 0.389005
7943 1 1 11.6311 10.0012 0.913994 0.864185
1781 1 1 7.82523 6.1689 2.46831 1.04946
6497 1 1 9.31533 8.33501 37.3599 0.918085
7866 1 1 10.1724 8.83977 36.9813 0.700971
6699 1 1 13.0273 7.58019 36.512 1.82438
574 1 1 11.2478 11.4243 2.14139 1.75149
7266 1 1 11.984 12.5258 2.11116 2.76864
7983 1 1 15.5345 7.66822 3.3745 1.48474
7021 1 1 15.526 9.62393 1.29897 2.30059
6599 1 1 0.0465306 10.894 34.6183 1.68515
6159 1 1 17.0068 7.9204 1.74381 0.1281
86 1 1 2.45113 8.45269 0.73264 0.825173
7621 1 1 3.38891 12.6788 1.26673 0.0752786
7967 1 1 1.16682 10.586 1.07338 1.62628
7047 1 1 2.43267 10.6877 0.812969 1.3646
6656 1 1 2.90527 11.3885 34.9342 1.61546
955 1 1 9.44748 10.4138 2.32103 0.427868
6842 1 1 5.51499 11.425 3.0471 2.23628
7002 1 1 8.41783 9.75598 0.214496 1.44622
1790 1 1 7.74911 10.5596 0.376947 2.16183
6380 1 1 4.80523 8.50339 34.7409 0.0838621
6933 1 1 7.96423 8.17187 0.845245 0.654484
721 1 1 8.344 8.89724 37.2778 0.892535
6752 1 1 14.1804 10.8022 37.0692 3.43756
6527 1 1 14.0793 13.1767 36.6203 3.14701
38 1 1 14.1605 10.264 3.52664 1.37652
678 1 1 9.47807 10.3313 0.147598 0.977939
423 1 1 13.5338 11.9934 0.009283 0.363576
1074 1 1 13.9968 8.07322 36.3658 2.32542
1068 1 1 17.3625 12.3163 35.82 1.60277
969 1 1 14.3959 10.8916 1.25206 1.47463
1349 1 1 0.268236 10.3884 0.588654 1.89868
634 1 1 0.0941313 11.2321 1.41669 2.52565
7772 1 1 0.234214 13.3965 2.04044 0.654966
7836 1 1 1.82613 13.2191 36.0329 1.19645
7855 1 1 2.61866 11.9737 35.9038 0.328081
549 1 1 2.11918 11.8889 1.32755 0.255367
773 1 1 2.17579 10.0131 2.6218 1.15968
7056 1 1 3.23313 10.67 2.39291 0.407274
8000 1 1 3.93452 9.41013 1.89966 1.72562
7854 1 1 3.36697 8.51358 2.45606 0.150993
1432 1 1 9.21742 13.1194 2.10254 1.03239
829 1 1 4.86283 13.432 37.2383 0.57834
10 1 1 8.24634 12.5093 36.4577 1.00497
6399 1 1 8.37994 15.2803 0.571044 0.0500535
6939 1 1 11.1524 12.2606 35.8803 0.993462
1103 1 1 11.0884 16.6863 0.248842 0.284669
236 1 1 7.6182 13.0792 37.03 2.96866
7548 1 1 16.2065 9.41157 0.0638059 2.08723
2320 1 1 11.8548 13.1031 36.599 1.53573
6590 1 1 14.0896 15.7155 4.21464 1.35304
7993 1 1 15.9379 11.8063 33.8703 3.12531
2353 1 1 15.516 10.6929 1.70779 0.933562
7670 1 1 0.269122 13.1244 3.53325 0.724537
1676 1 1 17.2394 13.0325 3.92314 6.8949
1567 1 1 17.2664 13.5906 0.123787 0.675812
7947 1 1 0.215189 17.7989 1.9441 6.18757
962 1 1 18.1802 12.7008 0.685582 1.27477
4804 1 1 2.84457 13.5891 2.35368 0.0453619
7957 1 1 5.25198 16.2999 2.16397 2.79264
1350 1 1 3.3593 13.8999 35.0803 0.417163
7217 1 1 5.14366 13.9721 2.20386 0.753112
6232 1 1 3.49449 11.5489 1.80702 1.88171
287 1 1 4.71716 14.5995 37.0673 1.67041
7248 1 1 3.81084 16.6193 1.04648 0.74172
239 1 1 7.48396 15.5003 2.02334 2.61252
1144 1 1 10.6038 14.8826 0.24444 0.948539
1295 1 1 10.1241 13.274 3.19847 0.611202
976 1 1 12.7783 11.755 2.03433 0.90298
7680 1 1 12.9042 16.2091 0.434974 1.40241
297 1 1 15.855 15.0436 36.0707 1.35958
7052 1 1 14.7427 15.8815 1.57977 0.269275
7853 1 1 18.8138 13.2384 36.8788 6.61676
2409 1 1 17.3697 14.4359 37.2701 0.354905
7338 1 1 17.2234 13.7659 1.11551 4.26873
1529 1 1 16.2864 15.8515 1.41246 3.39988
7926 1 1 1.75881 14.1675 36.4842 1.87254
686 1 1 3.3293 18.5958 3.80249 1.9416
7101 1 1 2.56965 17.0822 36.2853 1.32024
7454 1 1 2.89489 16.7808 35.2372 2.45515
558 1 1 3.66073 15.4918 5.96316 0.295798
1481 1 1 5.00512 16.5396 37.2462 1.53038
844 1 1 6.16594 14.2753 3.18993 0.470162
1210 1 1 6.83225 13.6926 1.47046 1.47632
7891 1 1 9.78725 15.8851 4.52371 1.95729
7180 1 1 12.5922 13.1716 4.15301 1.25049
7543 1 1 13.578 17.0999 36.8015 3.35556
389 1 1 12.4862 16.554 36.8436 1.28244
432 1 1 13.2454 15.5974 3.64895 0.177547
653 1 1 14.5579 18.5073 2.50127 3.93185
393 1 1 15.6871 13.2911 36.2161 1.14946
7390 1 1 17.7714 16.9828 35.3825 1.21497
1406 1 1 16.2962 14.4026 2.43596 2.02883
579 1 1 15.967 16.8435 0.318863 0.377006
7451 1 1 0.844978 17.5172 2.94763 6.81238
1569 1 1 2.93974 0.00366827 34.8425 1.04041
757 1 1 0.0864881 16.2375 0.916699 0.931167
7569 1 1 5.44474 14.0611 36.1028 0.91121
1729 1 1 6.16007 15.6934 2.11767 1.2059
605 1 1 5.22756 17.6481 37.0906 2.73878
1995 1 1 5.1338 15.6944 0.246395 2.14383
7303 1 1 5.99835 16.772 1.59953 2.87757
1582 1 1 5.3129 17.1759 35.1812 1.4871
13 1 1 7.82763 17.862 35.4472 0.871702
1206 1 1 9.08856 18.4768 35.266 0.623798
6851 1 1 9.19177 15.982 37.2431 1.86055
7452 1 1 11.3247 17.6274 2.46417 0.115552
7149 1 1 10.3269 1.1893 1.04674 1.45929
433 1 1 11.7828 14.6877 3.00521 1.34297
7341 1 1 14.2073 16.3022 36.8198 0.34637
1110 1 1 14.5378 15.9113 3.26048 0.0227637
356 1 1 17.3598 16.5817 36.3393 0.263275
629 1 1 14.5751 15.1977 0.0796425 1.77941
1042 1 1 17.3302 16.6449 1.22063 2.31604
5999 1 1 0.221773 15.6629 35.2696 0.783141
7892 1 1 1.10608 16.009 35.7177 0.344028
129 1 1 4.60393 0.340559 35.6218 0.966486
6688 1 1 2.96028 17.3902 3.35 4.90674
692 1 1 4.50465 1.41739 2.76619 2.68166
6713 1 1 4.78682 17.7623 35.9191 1.239
7404 1 1 3.49039 14.938 2.28256 0.754783
835 1 1 3.90328 15.0004 34.9513 2.52636
6835 1 1 4.31565 15.956 36.6348 0.728815
566 1 1 7.21907 0.794474 37.4136 0.104436
6914 1 1 8.63223 16.7466 36.9256 0.712552
5985 1 1 11.1755 17.5769 37.0055 4.70949
472 1 1 13.8622 16.4973 0.666182 0.919481
7672 1 1 17.3785 15.0786 0.361849 1.45385
2287 1 1 17.655 1.53826 35.5954 1.35889
6092 1 1 11.9547 17.1514 37.4495 1.08091
7106 1 1 18.1971 16.6599 32.9841 0.645122
7202 1 1 17.9978 2.05231 0.968495 0.995581
2662 1 1 18.7597 17.3424 0.943589 1.66602
7261 1 1 18.0381 14.12 0.340661 3.20744
194 1 1 18.6613 1.35464 3.3498 0.721018
954 1 1 0.645546 16.6679 1.79998 1.3549
643 1 1 1.25122 4.00711 1.46066 1.14816
7818 1 1 6.65444 1.14896 2.74591 0.867554
3146 1 1 5.48881 1.98859 36.7518 0.722755
1279 1 1 3.99453 2.06733 1.31383 1.71298
7166 1 1 6.36979 0.762672 0.449477 1.5486
1140 1 1 8.54057 1.01953 1.44274 0.254329
895 1 1 8.74095 17.931 0.982255 2.47416
700 1 1 11.0533 1.34697 4.7177 2.63368
6986 1 1 9.73952 18.7782 36.7645 0.303099
1708 1 1 8.9146 15.3457 5.01546 6.88365
505 1 1 13.2219 18.7399 1.50338 1.40861
2106 1 1 12.1384 16.8207 1.11657 1.49935
640 1 1 10.941 15.4598 2.87413 1.57796
7440 1 1 15.1736 1.80125 1.57952 0.188737
1928 1 1 17.0827 0.102211 2.12742 1.12928
1672 1 1 17.7079 0.448459 1.37336 1.36022
7992 1 1 0.704178 6.13529 3.68603 2.91062
7938 1 1 1.66841 4.91852 1.56479 0.0673742
656 1 1 4.57176 3.68348 4.22281 0.578938
489 1 1 2.99797 3.5896 2.25225 1.54327
1309 1 1 6.3313 2.12059 2.88381 1.17897
6942 1 1 8.45532 0.0993075 36.0461 1.01501
7535 1 1 9.34838 1.80464 3.01752 1.49955
7332 1 1 11.3092 1.4156 36.9285 2.72206
6477 1 1 8.0023 3.30142 3.35655 1.41968
94 1 1 10.4257 0.306796 1.79158 4.08179
6659 1 1 10.3918 1.41256 2.3116 1.8999
82 1 1 7.18717 4.46318 3.18779 0.669653
1993 1 1 9.98319 17.8387 1.14506 0.405852
511 1 1 11.3565 15.8796 1.37479 1.26946
1339 1 1 11.5268 18.7828 2.28674 1.43223
122 1 1 9.7422 16.6475 37.5972 0.971445
3071 1 1 14.175 2.86195 3.93552 0.163641
1183 1 1 14.0958 1.62711 1.02974 0.276987
1591 1 1 18.7233 2.52312 2.56101 1.83165
149 1 1 0.143293 2.72827 1.49426 0.412135
1020 1 1 15.1215 1.87158 0.456431 0.832154
7088 1 1 18.4498 0.15963 0.424807 0.920799
7841 1 1 1.69397 5.67902 3.53087 2.64469
366 1 1 1.71653 4.77337 0.231207 1.94862
406 1 1 3.72777 3.49262 1.32476 0.362801
509 1 1 1.28952 3.62035 3.45559 3.02828
2824 1 1 2.05004 2.17751 37.5505 1.02666
3 1 1 5.49906 5.19918 3.21209 0.362038
1237 1 1 4.9019 3.82031 1.54074 1.5771
7503 1 1 4.56974 5.41286 37.0793 0.731068
7663 1 1 9.09117 4.55124 3.94046 1.48876
7653 1 1 8.11932 2.70247 0.518212 0.644167
661 1 1 7.02091 3.26858 3.22948 2.2859
56 1 1 7.29217 1.36245 1.14813 1.44799
570 1 1 9.8294 6.21248 4.78933 2.55526
3337 1 1 11.7679 1.81198 0.400829 0.30712
1648 1 1 11.5031 5.52405 5.16575 2.69065
980 1 1 10.8467 18.1933 1.73528 0.256443
1239 1 1 13.0989 3.29337 4.45961 1.63238
6241 1 1 14.1884 2.32929 1.68598 0.757517
651 1 1 17.3322 5.56251 2.08554 2.35169
115 1 1 0.393365 3.79195 2.8364 2.23718
7937 1 1 1.07959 2.5001 3.70075 4.28435
314 1 1 18.2229 4.87612 2.64664 0.683888
7284 1 1 0.223756 5.30353 3.45191 1.03178
7631 1 1 4.3308 6.34584 6.20183 0.74866
68 1 1 0.0552231 3.75562 37.4473 0.89236
7660 1 1 2.20815 3.75678 1.7215 3.2279
1714 1 1 3.91565 6.49286 37.6308 1.27325
7643 1 1 8.93102 8.11675 1.90694 3.83949
7644 1 1 10.9103 4.86434 3.39577 2.11784
553 1 1 9.83727 6.16276 3.28432 2.60142
7348 1 1 10.485 5.72868 2.74092 2.0607
588 1 1 12.9037 5.44555 3.93291 1.64744
1826 1 1 14.7477 3.76448 4.60494 0.354696
1833 1 1 12.8468 7.73257 3.36059 0.276792
469 1 1 14.6867 6.48712 37.1243 0.498021
7358 1 1 16.806 4.44847 1.78656 3.37379
802 1 1 0.14419 6.09808 2.62502 1.44357
7659 1 1 16.2615 6.94648 1.3937 2.05012
3092 1 1 17.5897 6.83339 1.2811 2.24699
1287 1 1 17.6527 9.47942 4.36452 2.58853
5817 1 1 6.00138 7.7716 3.42427 2.69068
7242 1 1 1.81638 8.16453 3.42628 2.16615
7803 1 1 2.65595 6.08943 1.63476 0.25421
7738 1 1 5.1552 7.16274 37.5844 1.79111
1596 1 1 1.56902 8.63152 1.70458 0.73465
1427 1 1 0.877923 6.37194 0.564827 0.353935
214 1 1 8.45004 5.18051 3.15184 2.97295
1076 1 1 10.1489 7.386 37.0061 1.81272
1369 1 1 8.13649 3.22219 4.77427 0.828872
117 1 1 6.99142 7.18349 3.00178 1.29205
7625 1 1 8.86266 3.75808 0.409357 0.56834
7972 1 1 14.3896 4.45894 5.32939 0.414497
140 1 1 13.1497 7.10709 1.38462 2.63724
7719 1 1 11.4388 6.52112 2.15371 4.75382
7185 1 1 13.8029 3.9144 3.64262 1.44626
1537 1 1 14.5937 7.07615 0.621702 1.75114
7544 1 1 13.986 5.43383 0.153295 1.95529
6995 1 1 2.5108 10.4875 5.05063 3.4772
6975 1 1 4.51518 10.618 3.92217 0.568439
1562 1 1 1.92882 6.85766 1.06907 1.38654
926 1 1 18.4494 8.35411 2.52788 3.13275
7472 1 1 6.24122 10.1046 3.51538 0.350372
925 1 1 3.48676 8.66031 3.61169 3.05126
529 1 1 6.16175 9.54898 2.57229 1.39756
1547 1 1 5.163 11.132 1.20103 1.85493
1224 1 1 6.14311 6.55438 0.421786 3.301
1194 1 1 7.69057 8.54801 2.98939 3.15737
1107 1 1 11.7054 8.0665 4.6137 1.6245
6566 1 1 8.7946 5.79743 2.20103 1.52559
519 1 1 14.6656 5.76237 5.83506 0.771883
2244 1 1 9.92851 4.63775 0.695606 3.85754
277 1 1 10.2665 8.43617 1.50988 0.696476
5690 1 1 11.5076 7.81583 1.26242 0.427799
543 1 1 13.4886 8.51889 2.07901 2.68233
102 1 1 16.3578 5.82887 3.7357 0.802562
913 1 1 16.1342 7.51559 2.196 1.29118
669 1 1 15.9276 8.68566 1.57299 2.06082
6675 1 1 17.632 9.34885 2.2113 3.24315
107 1 1 0.796683 7.26331 3.54934 0.569631
1036 1 1 0.448879 11.6053 36.7538 1.21489
178 1 1 2.58516 11.6115 3.16458 1.05529
1863 1 1 5.67138 8.80592 1.58876 0.807437
369 1 1 1.1401 10.5177 3.1487 0.897663
2311 1 1 6.58323 6.48414 3.86105 0.595943
1046 1 1 6.29442 12.7246 1.03998 0.759947
238 1 1 8.58841 11.1924 0.932902 2.30591
985 1 1 6.88016 5.52948 3.60913 4.56493
7538 1 1 9.62284 8.56226 3.78151 1.42346
341 1 1 12.5768 8.36165 5.4959 2.17061
7156 1 1 12.2188 10.3485 4.08254 0.462976
610 1 1 11.8215 8.40129 0.297364 0.91775
1487 1 1 8.86499 10.4458 4.71971 2.63199
7945 1 1 14.8889 8.49906 1.42433 1.72579
1906 1 1 13.7603 10.0541 1.50123 2.36014
79 1 1 16.6366 8.26682 2.75041 1.10012
247 1 1 3.06455 11.3274 4.57003 0.676683
7851 1 1 0.244851 12.2775 2.54148 0.559272
230 1 1 0.739663 9.3004 3.55465 0.930191
300 1 1 18.6573 11.1969 5.18198 0.689643
7966 1 1 18.6801 9.39643 2.51969 2.00452
445 1 1 2.91514 13.6866 5.41379 1.08122
765 1 1 3.33772 9.74229 2.97494 0.198119
340 1 1 4.32686 10.1543 37.5001 0.206996
1264 1 1 4.65444 12.338 3.95992 1.19954
481 1 1 5.73188 13.0626 3.25204 4.34198
1389 1 1 4.64183 12.3094 5.67987 1.09556
7335 1 1 8.29225 8.99985 1.86061 0.72079
4198 1 1 9.64296 9.11866 5.72883 1.77074
1069 1 1 11.5819 7.52282 2.95972 2.58216
2814 1 1 10.7482 10.0468 2.07858 1.21525
1385 1 1 9.7761 10.5461 1.3439 1.09055
6693 1 1 10.3388 10.6318 3.04869 0.599628
386 1 1 11.7787 10.6722 2.48488 0.251083
7913 1 1 15.1413 8.76726 2.83167 1.27197
374 1 1 13.5279 9.65654 2.70819 2.35779
818 1 1 14.0766 10.8249 2.24931 1.60316
1234 1 1 16.9831 13.9927 5.48061 2.43388
7800 1 1 17.1427 10.1276 0.294082 2.35724
336 1 1 16.2502 13.7237 0.514888 0.435803
7089 1 1 18.2457 11.7274 4.1829 0.86966
259 1 1 0.531728 12.0267 3.56176 1.24281
245 1 1 3.03044 13.45 3.4656 0.706471
7811 1 1 4.16327 13.3728 3.36731 0.973059
584 1 1 5.57242 13.4435 5.71109 1.26243
704 1 1 5.54586 12.1765 2.18761 1.03589
769 1 1 7.83353 13.1512 1.96184 1.12363
6646 1 1 2.24104 11.5013 5.3285 0.05405
815 1 1 6.10943 15.3344 -0.0294714 7.48834
1542 1 1 7.30242 11.9283 37.5784 0.831555
7704 1 1 9.05162 12.1586 2.58227 1.78934
1475 1 1 8.36275 11.2722 4.1456 0.67699
7459 1 1 6.14884 12.8126 4.79713 1.96292
563 1 1 6.70849 11.8776 1.9245 0.363477
734 1 1 9.40167 13.3936 4.10393 4.45231
6723 1 1 11.1463 12.2929 0.704271 1.4881
7004 1 1 11.9999 9.86547 1.91569 1.42552
7834 1 1 12.0533 12.2607 3.45854 0.268238
2150 1 1 11.579 11.8907 36.9918 2.90188
627 1 1 15.9968 11.3775 0.969288 2.4181
1514 1 1 15.9746 12.3697 35.1059 0.74261
712 1 1 15.0957 14.3465 8.1922 0.574733
234 1 1 18.7782 15.073 2.59855 4.94476
1082 1 1 18.6582 10.1325 4.291 3.99125
1971 1 1 2.28518 12.8111 0.829606 1.50234
6459 1 1 2.75047 14.3541 4.42172 1.71967
7060 1 1 2.51756 13.7918 0.531673 5.45395
6600 1 1 6.64197 13.7618 5.43149 3.30398
487 1 1 7.40493 11.828 3.5828 0.566469
365 1 1 7.3133 14.2412 4.87989 0.860453
53 1 1 7.98299 13.9337 3.08796 0.766111
1165 1 1 11.1625 14.0015 37.0586 1.29496
7984 1 1 12.0741 14.6126 36.7441 1.59368
286 1 1 13.287 13.7689 36.2173 0.444758
416 1 1 10.1797 12.5281 2.21864 0.71981
6750 1 1 15.8199 14.2053 5.18654 5.16339
1187 1 1 15.2029 12.3086 3.32933 4.17025
1904 1 1 13.1852 12.1405 3.53046 1.26488
7444 1 1 15.3277 14.5975 2.81901 1.15796
375 1 1 16.3786 14.7588 1.10733 0.397379
1282 1 1 1.76314 16.2668 1.84065 0.930148
1561 1 1 4.80539 15.3453 1.3134 1.23992
785 1 1 4.29052 15.9454 2.40226 2.23477
504 1 1 5.46828 17.7474 1.56797 0.909107
1527 1 1 5.91675 16.8767 -0.00176096 1.42082
2046 1 1 8.9015 16.0801 3.79052 0.0787642
7489 1 1 5.70081 13.4349 1.53906 1.76844
885 1 1 6.85253 14.2825 4.04132 1.00473
902 1 1 8.12313 16.5238 4.33465 1.49694
1940 1 1 7.85921 15.1956 3.12447 0.628548
2224 1 1 11.0491 16.877 1.60302 2.11394
961 1 1 7.30338 15.5717 0.926562 1.34992
7893 1 1 10.8424 14.2446 3.30458 1.54389
7757 1 1 16.0675 15.5264 0.426116 1.08088
93 1 1 16.7349 15.8464 4.57215 0.0712267
1077 1 1 16.1582 13.3631 2.35729 0.497062
1614 1 1 18.6401 15.9797 2.99637 1.92877
7951 1 1 1.13174 0.704794 1.1853 1.18321
7116 1 1 18.3609 16.6863 1.77914 1.26977
439 1 1 2.98351 13.2546 37.5275 0.821327
1634 1 1 3.10537 17.1396 1.85681 2.59263
7934 1 1 5.24614 16.4228 3.42182 0.681625
763 1 1 6.70763 18.1821 2.04595 0.646749
7620 1 1 11.6777 14.1722 1.13545 1.21314
1196 1 1 8.19312 18.2041 2.14719 2.174
338 1 1 10.6035 17.1451 3.27163 0.779517
1167 1 1 11.7219 14.6205 4.24422 0.848754
7163 1 1 14.0509 15.2705 0.945241 0.0903131
820 1 1 13.3104 14.6988 0.162744 3.81796
1308 1 1 12.9222 17.4439 0.512614 1.49038
1479 1 1 14.2832 18.8157 1.29449 1.97221
1638 1 1 1.46617 15.8277 37.0416 0.0564525
328 1 1 0.623802 0.547225 0.057595 0.605339
859 1 1 1.41924 1.26422 37.4508 1.96949
611 1 1 3.22045 17.5869 5.89424 0.0852898
6866 1 1 7.8134 2.25736 1.40583 1.30559
687 1 1 6.17399 14.7472 2.355 0.838333
7300 1 1 6.64464 0.145401 1.26156 0.465741
1328 1 1 6.3211 1.07223 1.45672 2.19075
96 1 1 4.99911 18.0093 2.90263 1.23523
6079 1 1 7.66022 0.171414 1.50071 0.928505
173 1 1 6.83813 0.106679 34.6454 2.07865
7950 1 1 9.50456 15.2845 0.953019 1.6592
696 1 1 10.6914 17.0851 4.45272 0.799447
1616 1 1 12.0633 17.9002 4.19758 4.31817
20 1 1 13.7829 13.3461 0.024525 0.91971
1588 1 1 12.3687 18.1586 2.40798 4.09306
6872 1 1 13.6639 14.3613 1.46746 3.55516
881 1 1 18.504 17.1016 3.20164 2.73622
1269 1 1 15.6205 17.3799 2.84831 0.0344619
7497 1 1 16.5517 16.0441 2.46218 2.4423
7744 1 1 16.5102 18.0671 2.53321 1.16047
1607 1 1 17.8155 0.610623 2.7285 0.482054
18 1 1 17.3626 17.4253 3.15135 0.912782
2026 1 1 1.42634 2.45047 0.939918 2.24111
547 1 1 4.37844 0.248402 3.06199 1.63661
1327 1 1 5.2213 18.6435 6.20154 2.91877
633 1 1 3.79309 2.55326 4.15294 0.6712
1738 1 1 3.1103 2.00401 3.67049 0.817401
2126 1 1 9.43275 17.2887 4.6424 5.30205
7982 1 1 7.15494 0.335106 3.61753 0.953802
1168 1 1 9.54598 18.5737 3.80735 0.865362
497 1 1 8.06933 16.4686 3.17642 1.946
1579 1 1 11.9015 16.5657 4.84264 2.41419
7150 1 1 10.2897 18.6059 4.86761 0.132828
7821 1 1 10.4755 0.36169 3.94788 0.607591
7669 1 1 12.7659 18.4264 3.47286 1.08439
7980 1 1 14.993 0.49779 5.62705 1.39996
2270 1 1 11.6837 1.24437 5.55638 0.0312697
430 1 1 14.932 1.1527 2.80503 0.30419
1413 1 1 0.0787718 0.500094 5.05679 5.00228
867 1 1 14.0915 0.304023 3.74371 1.16845
7028 1 1 14.6499 2.11032 2.69006 2.634
853 1 1 16.0371 3.99005 1.03424 2.13809
1443 1 1 0.491903 1.57635 4.55123 2.90757
879 1 1 18.2542 18.363 3.55599 1.71107
2030 1 1 4.11008 1.54606 3.66423 3.99662
109 1 1 0.85537 1.26146 3.66162 1.55616
7251 1 1 2.98882 5.75763 4.44889 0.207543
915 1 1 4.72012 2.47823 2.13615 5.47738
1543 1 1 7.61399 2.33983 3.74892 0.732633
1322 1 1 3.95096 3.23058 2.51661 0.697726
7989 1 1 3.69612 3.76197 5.04693 0.203918
454 1 1 8.1636 2.0313 2.593 5.59314
1466 1 1 9.74051 0.649115 2.89956 0.0731816
824 1 1 11.702 0.452297 4.7957 2.62038
1213 1 1 15.2068 2.95056 1.99858 0.944879
906 1 1 9.56777 16.9168 3.67321 0.479608
409 1 1 12.9362 1.10366 2.3776 0.99146
2075 1 1 12.9443 18.3106 4.80407 1.38732
1473 1 1 14.554 17.5448 3.73677 0.736248
1044 1 1 11.9404 1.96193 3.499 1.16313
1223 1 1 16.2024 4.9943 37.4559 1.00405
387 1 1 12.6604 3.9925 3.27406 0.586576
7601 1 1 18.5039 3.81639 6.37339 0.884728
206 1 1 2.10731 1.03391 2.4057 0.718489
148 1 1 3.07424 0.277491 5.02381 0.541822
874 1 1 18.7265 2.50286 3.80768 2.62008
7280 1 1 1.94224 3.37307 4.53571 1.58766
1374 1 1 1.17344 4.80117 3.97304 1.02222
6648 1 1 3.27236 4.48715 7.41427 1.75528
774 1 1 1.51365 4.46225 4.92461 1.24408
7123 1 1 6.01384 4.32603 2.93061 1.09325
2917 1 1 2.15363 4.13395 3.02437 0.883006
1365 1 1 3.87611 2.24998 2.93821 0.645803
7921 1 1 4.25939 5.06473 4.85789 2.57559
7685 1 1 5.03499 6.71383 5.50291 2.58585
1488 1 1 6.4533 2.35854 3.87313 0.0912267
2177 1 1 10.9417 2.62367 3.16504 2.65867
1208 1 1 5.7165 2.06359 5.51185 1.48322
544 1 1 11.0282 2.40931 4.10845 0.402733
623 1 1 11.307 18.0484 3.41504 1.41831
7010 1 1 13.1586 4.94712 5.92509 1.31198
446 1 1 11.9696 2.53106 1.30549 0.378168
2139 1 1 14.2206 4.23627 2.30593 1.16574
2867 1 1 12.8671 0.585787 3.29709 1.44127
1539 1 1 14.9495 3.67794 3.0542 1.10246
1422 1 1 15.7343 3.85895 3.83904 0.916902
7914 1 1 17.1765 2.95261 5.49816 1.05575
828 1 1 13.323 1.77504 1.83357 0.872687
982 1 1 17.8283 3.91124 2.64069 0.233612
1041 1 1 16.7951 3.02699 3.10364 1.80403
47 1 1 0.421598 6.44629 6.10815 3.37566
1659 1 1 0.609469 5.08391 4.90226 0.748167
15 1 1 1.4991 7.55552 4.33444 6.31821
548 1 1 18.3908 6.94358 6.55708 3.23444
7924 1 1 5.67501 4.34179 4.05511 3.06474
125 1 1 7.5489 5.73019 1.57256 0.214167
1723 1 1 4.79336 5.01005 1.40471 1.20676
98 1 1 9.03557 5.05956 4.82285 0.353607
2318 1 1 6.65395 5.48755 2.47942 3.48642
796 1 1 10.961 4.45272 4.59249 1.64197
6136 1 1 10.1898 3.98096 3.96251 2.31288
7666 1 1 12.7312 3.21945 6.04925 3.68682
183 1 1 9.21107 4.01414 2.49386 0.87474
1203 1 1 15.372 4.30357 2.27292 2.13718
2017 1 1 14.9474 10.0925 5.29495 0.407483
7273 1 1 16.1095 4.97646 0.863091 1.0331
7998 1 1 16.3152 3.61168 5.00228 1.8501
75 1 1 1.49141 2.22137 6.02643 0.668796
6396 1 1 0.7367 6.84571 4.61348 2.4407
1002 1 1 2.83985 6.84555 3.54568 2.397
6848 1 1 1.63194 8.93861 4.48338 1.55835
1883 1 1 6.00598 5.31973 6.05246 0.796857
7879 1 1 4.10781 4.23053 2.07835 0.971299
1717 1 1 4.05967 7.6069 3.45639 0.907193
6767 1 1 4.25548 7.47065 0.0107782 2.34553
1864 1 1 3.44537 6.01208 2.37544 0.355952
131 1 1 7.69181 7.61675 4.96033 0.213392
188 1 1 6.91665 4.13125 2.19202 0.106769
1217 1 1 7.01765 7.84946 4.00815 1.37617
7782 1 1 11.333 5.92831 4.1574 1.22023
564 1 1 9.64177 5.88662 1.58987 1.44664
6538 1 1 12.0423 6.30669 5.02125 1.36218
1927 1 1 12.0309 5.80769 3.32847 0.450427
1051 1 1 14.7781 7.92131 5.97143 2.75664
7611 1 1 15.9849 10.5445 5.47752 2.6057
285 1 1 13.3973 4.95137 2.80461 2.35323
5812 1 1 13.9302 5.03564 1.5248 2.95518
108 1 1 12.1491 5.8346 2.2151 1.53542
602 1 1 16.3649 5.37903 2.50679 1.38881
1338 1 1 1.65563 5.79041 2.06359 2.28375
928 1 1 17.6761 5.46686 3.27733 0.711895
1399 1 1 0.187188 9.30424 1.21769 1.89498
2747 1 1 17.687 8.58083 7.37718 0.157484
996 1 1 2.87969 8.53515 4.69282 0.20526
357 1 1 5.1332 9.62048 1.86878 1.01629
626 1 1 3.40514 9.58395 4.29681 0.865788
983 1 1 7.26233 9.46114 3.50764 0.282003
568 1 1 7.82149 7.46673 2.58808 1.7833
344 1 1 7.39311 9.62396 4.64223 0.829947
2980 1 1 9.32567 8.24294 5.30131 0.430075
7322 1 1 9.38266 7.53878 4.14293 2.8013
1784 1 1 10.5955 6.75121 4.00919 1.16761
648 1 1 12.1698 9.68185 5.97069 1.11149
738 1 1 11.7443 8.94867 1.88381 0.315993
1802 1 1 14.0708 8.81285 2.93107 0.949572
1513 1 1 15.4493 10.3115 6.5703 1.63909
596 1 1 14.8514 10.0814 2.16222 0.457127
235 1 1 16.926 7.01521 2.72085 1.2985
240 1 1 15.3737 6.07769 4.23884 0.457645
6875 1 1 0.733804 4.46529 0.692866 1.35624
2798 1 1 18.7699 7.27452 4.17639 4.06169
134 1 1 3.76861 11.5377 3.5738 0.0574709
440 1 1 4.82805 10.2035 5.07988 3.05205
1417 1 1 5.69418 8.73298 7.31894 0.572797
1001 1 1 8.09404 9.96936 2.54958 0.703626
604 1 1 8.62573 8.25159 3.52408 4.0882
1211 1 1 10.5253 7.96995 4.48272 0.321505
95 1 1 7.3037 10.919 3.60761 1.18764
345 1 1 7.77333 8.67971 4.1617 1.10508
1460 1 1 10.8171 6.89928 3.0656 1.85571
7867 1 1 12.5006 8.83045 6.7228 6.8868
241 1 1 12.3913 9.44899 4.96023 1.36047
1250 1 1 14.7987 8.91736 3.91303 1.26544
2587 1 1 15.7004 8.90656 4.4009 2.19065
790 1 1 14.5561 7.95358 2.2863 2.2507
7470 1 1 15.1358 9.8231 4.26439 0.686395
6561 1 1 0.262455 6.50788 1.65564 1.10118
7432 1 1 16.0726 9.8366 2.66286 0.929521
1113 1 1 14.9526 7.28337 6.91729 1.29945
863 1 1 18.3902 10.7895 6.24828 1.54965
7721 1 1 6.53831 8.48828 2.27015 0.0296692
1093 1 1 0.542629 12.2331 4.63713 0.920964
7474 1 1 1.77217 11.2946 6.15859 0.0868347
399 1 1 3.75782 12.2991 4.35268 1.63727
2882 1 1 5.14772 9.34021 4.50067 2.69433
970 1 1 5.50712 10.5822 4.24421 0.379711
7862 1 1 2.07792 14.4003 6.57689 3.70305
2265 1 1 8.4767 11.5862 5.46676 0.962319
1727 1 1 5.14248 12.9227 4.75582 1.1781
478 1 1 5.32915 10.0252 2.94514 0.971685
825 1 1 10.8362 8.21154 2.68629 2.18138
1296 1 1 9.09043 9.54188 1.25231 1.95162
7573 1 1 9.45513 7.97375 0.947075 1.98253
378 1 1 9.56567 13.0786 0.643543 1.21142
1332 1 1 10.4196 9.86071 4.68381 0.308386
1438 1 1 16.2638 10.1475 4.10424 0.263269
7979 1 1 13.8555 11.2837 5.70655 1.07176
1189 1 1 15.1491 11.616 2.51929 1.33305
1072 1 1 14.4936 11.4574 3.36961 1.05628
1143 1 1 16.4163 11.775 2.0824 5.49773
1728 1 1 18.7091 7.01903 3.1696 0.538451
622 1 1 16.6806 8.60534 4.09232 1.08456
1280 1 1 18.4897 13.0334 4.4886 0.397098
1895 1 1 4.01583 16.7091 3.08537 0.794346
7863 1 1 18.0148 15.1187 4.62327 2.68565
800 1 1 6.90974 15.7975 4.33031 1.18273
7011 1 1 17.2385 15.0806 3.42583 2.62419
1178 1 1 5.35419 11.5799 4.9806 0.0219377
1163 1 1 1.80332 16.2462 4.23601 1.32445
1448 1 1 3.91103 13.5639 2.31942 1.39368
699 1 1 8.73862 11.2043 2.63949 3.30762
163 1 1 8.38711 12.2638 1.59824 0.941602
1226 1 1 7.70297 10.8662 2.1184 1.68134
823 1 1 8.52662 10.3143 1.58176 0.515125
1504 1 1 10.4313 12.1485 6.6922 2.13771
7138 1 1 14.9973 11.8364 1.62424 0.608655
1799 1 1 13.7785 12.8134 4.33219 0.216071
991 1 1 17.4239 12.1535 1.70248 0.195852
303 1 1 16.946 12.7994 2.81496 0.240878
302 1 1 16.0455 14.8242 6.0707 2.99956
6563 1 1 16.6305 11.1274 3.96474 1.66296
1079 1 1 18.0725 11.6284 2.45296 2.49581
918 1 1 0.344528 14.5261 1.08596 4.04094
7754 1 1 17.0526 14.6337 4.42686 0.991169
642 1 1 1.83501 15.6019 3.07508 1.17663
7051 1 1 3.56311 15.5726 3.10146 0.0175285
7515 1 1 0.370237 14.64 6.34539 4.12911
6531 1 1 4.71653 17.0189 6.55497 0.00539141
6536 1 1 3.24 14.5742 7.56017 0.928813
7210 1 1 4.42949 11.4633 4.63898 0.874683
7139 1 1 8.36868 12.8659 3.13913 3.03816
221 1 1 8.33071 14.0478 4.33976 1.19841
1848 1 1 11.5855 10.9032 3.4386 1.42463
284 1 1 8.82214 17.5779 2.85957 1.89326
64 1 1 9.44835 11.3942 0.35581 3.75924
1100 1 1 11.2161 11.4268 4.3875 3.98268
7705 1 1 11.437 13.3114 2.67196 4.48836