ITEM: TIMESTEP
3100
ITEM: NUMBER OF ATOMS
8000
ITEM: BOX BOUNDS pp pp pp
0.0000000000000000e+00 1.8820720577620570e+01
0.0000000000000000e+00 1.8820720577620570e+01
0.0000000000000000e+00 3.7641441155241139e+01
ITEM: ATOMS id mass type x y z v_temp
7951 1 1 1.0447 0.436084 1.13668 2.74043
328 1 1 0.848327 0.477221 37.4862 0.406943
1739 1 1 2.46183 0.414914 37.2729 0.652042
1573 1 1 2.22638 0.819631 0.708193 2.03402
1198 1 1 3.32049 0.428578 0.799881 0.692363
7166 1 1 6.55329 0.930109 0.301104 1.56211
7300 1 1 6.13555 18.5986 1.05398 1.24803
1328 1 1 6.36768 1.28125 2.02599 1.63007
1446 1 1 8.00983 0.344406 0.543694 0.302653
1140 1 1 8.38476 1.49859 0.927879 0.31806
56 1 1 7.34704 1.33644 0.779981 0.694221
6855 1 1 9.0392 18.7674 0.280588 1.13658
7149 1 1 10.8195 1.21243 0.341866 2.90472
887 1 1 10.1162 18.72 0.154715 0.649263
7745 1 1 11.7533 1.09009 37.5316 7.46831
801 1 1 12.5506 0.0364707 0.433321 0.129424
1479 1 1 14.5065 0.228391 0.95644 2.54178
7301 1 1 14.6812 1.07384 0.265636 3.07483
1511 1 1 15.6853 0.700212 1.19197 0.742189
6839 1 1 17.4031 0.35967 37.2147 1.33456
1672 1 1 17.6081 0.602854 1.24427 0.377082
7088 1 1 18.4492 0.405456 37.4235 2.06822
1380 1 1 17.7454 1.10847 0.175527 1.63156
7930 1 1 0.748093 1.8988 1.0738 2.01196
508 1 1 0.474521 2.59521 0.324357 2.55061
2026 1 1 1.67938 1.39469 1.45332 4.04081
1279 1 1 4.53087 2.45158 0.996178 1.90139
6494 1 1 3.87051 2.38165 37.6016 1.0551
7604 1 1 5.43888 1.9277 0.361034 1.85842
1266 1 1 5.36378 1.69667 1.52707 1.02303
324 1 1 5.63435 3.22989 37.3796 0.87215
7751 1 1 6.2234 2.95752 0.835729 0.808302
7564 1 1 7.89231 3.31399 0.590815 4.74654
7653 1 1 8.65628 2.38481 0.221152 1.54607
6866 1 1 7.08255 2.21027 1.63323 1.20456
775 1 1 9.48207 1.79483 0.590019 0.458207
7283 1 1 9.3361 2.76263 36.9161 5.36673
3337 1 1 11.4511 2.02608 0.802052 2.73046
446 1 1 12.1049 2.74554 1.20519 0.275389
350 1 1 12.4692 1.73488 0.528029 0.296004
6850 1 1 12.9638 2.98771 0.545026 4.27541
1183 1 1 13.8393 1.92109 0.653807 0.747292
1020 1 1 14.0943 3.05714 0.554206 1.37699
6845 1 1 16.164 2.10543 1.26083 1.62141
7202 1 1 17.8641 1.88105 1.13325 0.535455
1045 1 1 0.408862 3.83166 0.736259 0.65778
1713 1 1 1.5078 3.09195 1.1695 1.07088
6006 1 1 2.68472 2.16318 1.04578 0.459616
7697 1 1 3.12514 3.46161 0.272526 2.8778
406 1 1 3.09127 3.38273 1.34019 3.3251
7612 1 1 5.79684 4.19034 0.566835 4.25177
1333 1 1 9.74082 3.03892 0.287119 2.25913
7625 1 1 8.50779 4.02313 0.120566 1.32007
437 1 1 10.7613 2.72851 0.19958 3.14483
7032 1 1 12.1564 3.71884 0.724417 1.63003
7392 1 1 14.9528 3.7393 0.561236 2.6482
5355 1 1 17.1225 3.69081 1.70248 3.53601
853 1 1 15.8164 4.41279 1.25029 0.288603
7595 1 1 16.7525 4.48819 0.681156 2.32594
1037 1 1 18.0865 2.8412 0.34238 1.99771
6423 1 1 17.7172 3.90072 0.952186 0.40457
6875 1 1 0.557372 5.00525 0.588882 0.982677
6987 1 1 2.52782 6.05121 0.265693 1.20019
366 1 1 1.61146 5.06683 37.461 0.74988
7718 1 1 3.13646 4.52767 0.365337 0.686599
6083 1 1 4.14936 3.79645 1.12383 1.19835
1310 1 1 3.82325 5.31214 1.17444 0.0934648
1723 1 1 4.65575 4.92372 0.812568 3.51151
135 1 1 5.43457 5.60296 0.225181 1.79025
5799 1 1 6.48356 5.95192 0.767921 3.33135
217 1 1 7.3169 4.01537 1.07623 2.20501
2244 1 1 9.4277 4.66462 0.364979 1.06574
6581 1 1 8.54017 4.33368 1.97181 0.554539
7450 1 1 12.0328 4.28838 37.1984 3.89847
7155 1 1 12.5385 4.06747 1.60345 0.926893
6551 1 1 11.0444 4.43227 0.559841 2.85751
7544 1 1 13.9267 5.33362 0.126565 0.0406889
1377 1 1 14.8639 4.87558 0.696337 1.78302
223 1 1 17.4381 5.37616 0.762243 2.18473
7273 1 1 15.6323 5.64683 0.973496 0.324773
877 1 1 18.5875 4.84603 37.3505 0.644691
645 1 1 18.3594 4.8127 0.794829 3.28406
1427 1 1 1.12841 6.08093 0.229243 3.62808
1562 1 1 1.63379 7.12845 1.44324 0.711145
573 1 1 1.17102 6.92199 37.2562 1.21333
7956 1 1 2.94895 6.68207 0.984773 1.42319
6152 1 1 4.05329 6.67243 0.373099 0.453522
1224 1 1 6.60416 6.99304 0.491279 0.949398
1381 1 1 8.55674 7.29105 1.36944 3.44535
354 1 1 8.70093 6.30719 37.2197 0.863161
6996 1 1 7.64126 6.76194 1.1592 1.17235
7408 1 1 9.95676 5.89517 37.6011 1.13803
7466 1 1 8.85527 6.24248 0.946162 2.03628
973 1 1 11.614 5.82231 1.03015 0.556718
6949 1 1 10.3159 6.78105 0.348146 2.41487
1664 1 1 12.7365 7.80301 0.582926 0.543371
6997 1 1 12.6782 6.32643 0.503188 2.47033
6470 1 1 11.4561 6.49173 37.5989 2.56767
675 1 1 12.0853 6.98033 1.71318 0.234701
6044 1 1 13.8976 6.19575 0.859769 1.64141
140 1 1 14.1432 7.12788 1.13461 1.01668
276 1 1 16.1049 6.88212 0.128899 0.653029
1537 1 1 15.0117 6.45155 1.09049 1.20328
371 1 1 16.6304 6.06996 0.369625 2.39235
7659 1 1 16.2676 6.42911 1.62889 1.5239
3092 1 1 16.7315 7.22379 0.862777 0.298957
1757 1 1 0.225462 6.53113 0.799868 2.75539
7397 1 1 18.4997 5.71212 0.204438 0.71945
1360 1 1 0.836421 7.45165 0.477214 1.16659
7942 1 1 1.64054 7.8 37.5143 0.237189
86 1 1 2.39049 8.79879 0.821229 0.780874
6578 1 1 2.98819 8.33282 1.469 2.41663
6767 1 1 3.70647 7.87852 37.5234 0.443654
1415 1 1 5.12672 7.91723 0.943825 2.06246
6874 1 1 7.4134 7.68619 1.05688 0.93561
6933 1 1 8.51108 8.62846 1.15141 1.18104
7573 1 1 9.69525 8.36019 0.652099 1.12379
5690 1 1 11.6272 7.83301 1.27844 0.747501
610 1 1 11.6582 8.23534 0.369424 0.405014
5857 1 1 18.1187 8.8455 0.930795 2.26427
1399 1 1 0.874672 9.7216 1.48339 1.08082
5649 1 1 1.15586 8.87048 0.88796 2.46221
7026 1 1 2.59184 9.70078 1.21197 1.36466
158 1 1 3.59097 9.55677 1.21547 3.88466
930 1 1 5.08796 9.65943 0.248898 1.2091
7065 1 1 5.91954 10.158 0.973786 1.15256
7731 1 1 6.62719 9.92903 0.247746 2.87648
429 1 1 7.51332 8.80006 37.5917 0.348841
7002 1 1 7.63304 9.7864 0.4965 1.26663
154 1 1 6.90074 9.80759 1.57766 2.66374
1296 1 1 9.503 9.50499 0.440167 0.474121
7943 1 1 11.3735 10.6563 0.17782 3.5225
232 1 1 13.5308 10.1584 0.0140526 3.69869
1193 1 1 13.3905 8.48539 37.0041 2.38212
7021 1 1 15.6296 10.2191 1.54342 2.04568
1120 1 1 15.2022 9.9657 0.704303 0.762221
7548 1 1 15.9597 9.0889 0.614588 0.964521
7800 1 1 16.7737 9.8258 0.506617 0.59175
3472 1 1 17.0524 8.49067 1.05874 0.8015
219 1 1 17.8816 9.68103 0.209199 0.405311
7967 1 1 1.51997 10.4521 1.57408 3.59241
1349 1 1 0.183514 10.4452 0.953934 0.0484195
7729 1 1 1.22064 12.294 1.39731 5.28705
7047 1 1 2.29219 10.7325 0.96884 0.72728
48 1 1 4.33268 10.5888 3.00959 3.17546
228 1 1 3.18443 11.5383 0.367112 1.07616
1547 1 1 4.80411 11.3164 1.44024 0.482514
1790 1 1 7.61867 10.6333 1.05524 0.901386
238 1 1 8.78835 11.8625 0.818715 0.892093
678 1 1 9.23809 10.2471 37.5237 2.8296
1385 1 1 9.40063 10.9079 0.789062 1.80844
64 1 1 8.72446 11.2473 37.2624 0.871083
229 1 1 10.1827 10.7278 37.2439 3.31556
969 1 1 14.9913 11.0282 1.49019 2.83631
1997 1 1 13.9875 11.4105 1.60759 1.10379
7512 1 1 14.4274 11.3878 0.600305 2.89358
627 1 1 16.2911 11.3698 0.31214 0.870486
736 1 1 16.262 10.3315 37.3412 3.13097
7805 1 1 18.0688 10.9749 1.03296 2.58043
549 1 1 2.29884 12.0052 1.49632 0.552448
1971 1 1 2.21978 12.391 0.57353 1.08784
7621 1 1 3.26552 12.6983 1.08761 0.887094
452 1 1 4.48007 12.2462 0.497672 4.37332
1046 1 1 6.67854 12.6997 1.58294 0.448752
23 1 1 5.87637 12.81 0.191019 2.02135
6253 1 1 7.32788 11.723 0.953908 0.838587
6723 1 1 10.6636 12.8569 0.519029 0.115648
423 1 1 13.4772 12.2604 0.88421 0.71675
296 1 1 17.1998 11.6676 0.825891 0.263347
7282 1 1 15.7888 13.5281 0.880726 1.95679
962 1 1 18.1268 11.8939 0.949843 0.250176
6183 1 1 0.999716 14.3007 0.831093 1.3296
6411 1 1 18.5633 13.2187 0.0832831 1.29101
7060 1 1 3.16532 13.7015 37.2131 1.53177
6898 1 1 4.38915 13.183 0.861771 1.85203
6379 1 1 4.7573 14.2648 1.04716 0.983031
7035 1 1 6.51185 13.5803 0.95235 2.42463
7457 1 1 7.53781 12.7401 0.609311 0.889596
378 1 1 9.87247 12.6838 1.38971 1.51134
5866 1 1 9.7821 14.166 0.218422 1.93323
7620 1 1 12.3389 13.2252 1.19949 3.96039
708 1 1 12.5548 11.9768 0.995262 2.47823
7955 1 1 13.7303 12.9944 1.70598 1.13388
1567 1 1 17.7702 14.0037 37.5968 1.96173
7338 1 1 17.9861 13.827 1.05995 0.908489
336 1 1 15.988 14.1424 0.0198207 2.74675
7261 1 1 18.6789 14.7136 0.198752 1.70274
918 1 1 0.692443 15.2501 0.70796 0.701212
7845 1 1 2.75867 15.0091 0.689479 0.676418
7405 1 1 4.24761 15.2634 0.557408 2.37226
1995 1 1 6.25255 15.5613 0.234492 1.04458
1561 1 1 5.59785 15.0138 1.03484 2.1106
37 1 1 6.4906 14.6099 1.18884 0.74787
6399 1 1 8.47863 15.2466 0.841062 0.156689
961 1 1 7.05169 15.6093 1.42924 0.244448
7950 1 1 9.58313 14.8115 1.22943 2.64248
1144 1 1 10.4343 15.4994 0.208913 5.55643
511 1 1 11.0788 15.5132 0.909117 0.298859
6032 1 1 12.1829 15.6919 37.5398 2.18455
7163 1 1 13.3583 15.591 0.77847 1.97649
820 1 1 13.0756 14.4084 0.285987 0.79601
629 1 1 14.9408 15.2336 37.4888 0.382745
1529 1 1 15.3795 15.2919 1.56744 1.24257
375 1 1 16.799 13.9021 0.752615 3.43482
7757 1 1 15.8489 15.8734 37.3989 0.448203
7672 1 1 17.7721 15.3642 0.364522 2.07485
1170 1 1 18.4386 15.2348 1.14387 0.896449
757 1 1 18.7913 15.7236 37.5376 0.737579
2476 1 1 1.39523 16.2797 1.18368 1.95711
1984 1 1 0.831406 16.9326 0.578818 2.35104
1136 1 1 2.52602 16.5109 0.738922 1.97347
7248 1 1 3.87245 15.9175 1.20635 1.60115
7530 1 1 4.61681 17.0768 0.483299 0.275028
569 1 1 5.16605 16.4055 1.22368 1.05611
7899 1 1 7.34369 16.4613 0.609999 0.808759
7736 1 1 8.4874 16.2209 0.986854 0.660608
6673 1 1 9.25995 16.5735 0.323228 2.27635
1103 1 1 11.678 16.4645 0.718683 0.928643
7680 1 1 12.9179 16.3784 0.375522 0.317957
2106 1 1 12.3993 15.7136 1.13892 5.91352
472 1 1 13.8968 16.6816 0.45757 0.855707
2109 1 1 15.6453 16.392 0.733454 4.63087
579 1 1 16.8203 16.5443 0.10514 2.04925
1042 1 1 17.8288 16.2617 0.886695 3.99115
2662 1 1 18.6815 17.2058 0.215898 1.89272
668 1 1 0.466543 18.2978 0.824404 0.993497
1469 1 1 2.65681 17.4233 0.0523403 1.82259
7773 1 1 4.5218 18.5069 0.552458 0.498218
175 1 1 7.46978 17.6015 0.44095 2.49536
895 1 1 8.82303 17.6433 0.851985 0.722798
1993 1 1 9.91929 17.4459 0.825648 0.662351
7753 1 1 9.61102 17.878 37.4408 0.181233
7568 1 1 12.2409 17.4297 0.769887 2.97641
1308 1 1 13.5645 17.5656 37.4771 2.11958
788 1 1 14.1753 18.3567 0.296579 0.0316532
7529 1 1 15.219 18.4052 0.502549 1.10362
1315 1 1 16.7738 18.0605 0.162743 1.60285
7434 1 1 16.676 18.6755 1.05305 2.96281
910 1 1 0.553664 0.38715 2.77243 0.35269
206 1 1 1.26621 0.962247 2.50061 1.27673
608 1 1 3.76781 0.859349 2.91571 1.47074
692 1 1 4.3178 1.57848 3.45218 2.72504
7818 1 1 7.1453 0.626831 2.74899 3.01198
6079 1 1 7.12609 18.6523 1.2882 0.392581
55 1 1 8.83283 0.870821 2.03705 3.62871
2103 1 1 7.57485 1.26858 1.76491 0.679101
343 1 1 9.26587 18.5958 1.39812 3.82414
515 1 1 11.5761 0.909761 1.15982 4.54939
94 1 1 10.8102 18.627 1.95182 1.74136
6659 1 1 10.2925 1.77131 1.51392 1.04471
2348 1 1 11.8596 0.605665 2.07047 0.658086
409 1 1 12.997 1.45353 2.2624 0.414215
7340 1 1 12.1825 18.5272 1.3721 3.43543
281 1 1 13.328 0.706442 1.31012 2.17508
822 1 1 13.5252 18.7628 2.96641 1.09368
430 1 1 14.9252 1.22671 2.25297 0.64215
1928 1 1 16.3703 0.396376 1.8657 3.01446
807 1 1 17.7528 1.59227 2.14669 0.492403
351 1 1 18.4454 0.228991 2.1803 1.47482
1607 1 1 18.3144 18.7914 3.22342 2.24553
149 1 1 0.408849 2.94265 1.34453 0.755983
965 1 1 0.428651 1.69114 2.49447 1.26716
2044 1 1 2.72622 1.51263 1.97816 2.7196
1654 1 1 1.5116 1.82973 2.36932 4.6853
104 1 1 3.02257 2.63822 2.28065 1.22934
915 1 1 4.92338 2.4707 2.40108 0.791487
6040 1 1 7.0571 2.23167 2.58956 4.22518
454 1 1 8.75423 1.9512 2.11985 0.981534
726 1 1 9.44775 2.34202 1.372 1.12114
1270 1 1 11.9548 1.77785 1.81275 0.451389
6241 1 1 13.9084 2.85579 1.82649 0.97869
828 1 1 12.9862 2.35749 1.60926 1.376
7440 1 1 14.6448 2.37821 1.57027 0.799339
7028 1 1 14.9033 2.71615 2.63184 2.5101
552 1 1 15.6776 2.11615 2.13744 1.65988
1591 1 1 0.0552594 2.73946 2.60573 1.12515
914 1 1 18.428 1.9733 2.94827 0.767939
7633 1 1 17.6153 2.55081 1.82402 0.382025
383 1 1 1.05223 3.09746 2.26807 1.42178
643 1 1 1.48644 3.98462 1.84436 1.28919
115 1 1 0.091672 3.84301 3.00026 0.428113
7660 1 1 2.48395 4.25327 1.48059 1.41621
489 1 1 3.61515 3.87394 2.77813 1.87078
1322 1 1 4.40264 3.37533 2.10074 0.372159
7879 1 1 4.34623 4.33814 1.98439 1.09699
1237 1 1 5.09138 3.38527 1.33468 2.20679
1850 1 1 5.80628 3.53049 1.96989 1.24175
188 1 1 6.2073 4.58703 1.67185 2.89396
7861 1 1 7.53724 4.72968 2.33501 1.82414
6922 1 1 8.54916 3.17875 1.30247 0.470007
580 1 1 7.44576 3.23268 1.90764 0.0761275
183 1 1 8.8283 3.54116 2.58172 1.8728
593 1 1 9.58686 4.63123 1.74319 0.525091
7468 1 1 12.0268 3.17717 2.29892 4.14013
2139 1 1 13.6126 3.99697 1.99948 2.37996
1213 1 1 15.6583 3.54282 1.96604 2.24261
1203 1 1 15.455 5.0271 2.00235 1.85765
982 1 1 18.0664 3.4284 2.15269 1.80609
1409 1 1 0.921141 4.81063 2.5878 0.973491
7938 1 1 1.48885 5.05847 0.834033 6.8163
1338 1 1 1.55157 5.88121 2.16589 1.56632
936 1 1 3.32688 4.46828 1.86075 2.07951
6605 1 1 5.42818 5.99537 1.40559 0.529397
2318 1 1 7.25009 5.2773 3.19195 3.29488
6216 1 1 5.27278 4.93919 2.48524 1.70996
125 1 1 7.62061 5.33103 1.48761 0.646878
61 1 1 9.25492 5.34011 3.16985 4.9778
6566 1 1 7.99071 6.31497 2.04684 2.41503
164 1 1 10.8194 5.17731 1.77614 0.735554
7348 1 1 10.4923 5.25578 3.77419 0.650819
285 1 1 12.4681 4.85859 2.7322 1.07312
5812 1 1 13.7435 5.10454 1.71438 1.71331
651 1 1 17.276 6.11264 1.53935 2.39156
7358 1 1 17.322 4.80605 1.6509 0.298788
602 1 1 16.506 5.54027 1.95011 0.988674
1715 1 1 17.6091 4.75451 3.06246 0.401627
137 1 1 0.0123578 5.39673 1.67602 0.536234
314 1 1 18.74 4.6855 2.39696 0.878343
72 1 1 0.903578 6.86082 2.50376 0.926648
802 1 1 0.677469 5.91907 2.76948 1.54592
6561 1 1 0.923067 5.88719 1.39985 2.21503
305 1 1 1.4663 6.6242 3.42183 0.611772
7944 1 1 2.03609 6.68715 2.39733 1.63108
7803 1 1 2.31912 5.5644 1.40612 0.198471
1864 1 1 3.31988 6.27209 2.81231 0.604877
6971 1 1 5.82862 6.17083 2.88835 2.70543
190 1 1 4.24665 6.89211 2.31119 4.5116
7387 1 1 7.02549 7.02746 2.26987 2.72956
1781 1 1 8.23522 5.60108 3.10059 0.810449
7094 1 1 9.07702 6.39822 2.47801 0.276059
564 1 1 9.89141 5.66137 1.4187 1.82944
1450 1 1 9.49072 6.80987 1.71039 2.34564
7719 1 1 10.9009 6.89755 1.99241 2.78263
550 1 1 12.4243 6.92409 2.72914 0.544917
108 1 1 12.4805 5.24969 1.52295 2.48367
271 1 1 14.4271 5.91893 1.83989 2.66534
486 1 1 14.8044 6.40168 3.35311 1.37455
956 1 1 15.8456 6.13533 2.65014 4.11107
235 1 1 17.1155 6.5441 2.74231 3.22468
6719 1 1 18.6072 6.34066 2.31781 3.55596
6196 1 1 0.704475 8.46757 2.49199 2.06474
1596 1 1 1.46445 8.83821 1.90167 0.306774
7308 1 1 2.13325 7.8722 2.17874 0.382212
7854 1 1 3.70202 8.6249 2.84302 0.524397
1917 1 1 3.97361 7.96149 1.6134 2.1874
7326 1 1 5.13116 8.06225 2.11225 1.0481
1681 1 1 4.82064 8.98809 1.5569 0.563987
7721 1 1 6.65265 8.30538 2.33055 0.285308
7482 1 1 6.11977 7.45893 2.21423 0.72862
568 1 1 8.07335 7.25932 2.58773 0.611912
1273 1 1 7.40948 8.81844 1.4859 0.926074
7643 1 1 8.69439 8.58313 2.43956 2.04052
277 1 1 10.0471 7.69353 1.93794 1.65685
825 1 1 10.8943 7.54668 2.74271 1.5212
543 1 1 14.0774 8.03926 1.91844 0.167623
7945 1 1 13.9934 9.40053 1.10917 2.70763
790 1 1 14.8928 7.48466 2.24412 1.03636
6159 1 1 16.991 7.59129 1.90985 2.34007
913 1 1 16.3772 7.25847 2.58235 0.629305
669 1 1 16.0439 7.89519 1.5502 2.31534
79 1 1 16.655 8.43407 2.35307 1.27577
926 1 1 18.5912 8.38908 1.8453 0.835725
205 1 1 18.0437 7.39016 2.00316 2.30695
7717 1 1 1.21257 9.79242 2.59645 1.55741
773 1 1 2.20757 11.0445 3.10613 0.605944
2504 1 1 2.08734 9.27002 3.32602 0.284606
8000 1 1 3.73312 9.61398 2.33922 0.0334024
1863 1 1 6.1203 9.34138 1.96621 0.292367
357 1 1 5.15813 10.0134 1.58317 0.199957
529 1 1 6.35371 9.21988 2.93618 1.71752
615 1 1 7.42343 9.82324 2.48289 1.64805
7335 1 1 8.27586 9.51478 1.85153 0.330813
1001 1 1 8.89813 10.1474 2.56701 0.997523
2814 1 1 10.9788 9.84588 1.1106 2.55771
7004 1 1 11.7678 9.43576 1.48019 1.30775
738 1 1 11.5038 8.27699 2.23931 1.82715
1906 1 1 13.2086 10.5501 1.67959 0.425545
374 1 1 12.5618 10.0367 2.63108 0.659417
7913 1 1 15.0976 8.52893 1.47749 5.0544
596 1 1 14.6265 10.0835 2.41314 1.21162
7432 1 1 16.1215 10.1898 2.63055 1.55753
7488 1 1 16.9396 9.50605 1.66472 1.12213
6675 1 1 17.7509 9.07812 2.52433 2.20356
7966 1 1 0.0306262 9.27842 2.53068 1.63601
634 1 1 0.102519 11.3457 1.89291 1.06142
7056 1 1 2.9918 10.5403 2.55472 1.79587
6232 1 1 3.12533 11.1787 1.81087 2.91015
146 1 1 3.63394 10.5854 3.72611 5.62366
6584 1 1 6.33183 10.2782 2.4668 2.3502
1226 1 1 7.13743 10.9304 2.25659 0.767404
823 1 1 8.64361 10.0831 1.04289 2.36316
955 1 1 10.0607 9.63068 1.62357 3.78983
699 1 1 8.38646 11.3165 2.25783 0.554942
342 1 1 9.80328 11.6822 1.33374 0.656447
574 1 1 10.7394 11.0752 1.34875 1.87487
386 1 1 12.0245 10.9215 2.73766 1.69539
818 1 1 13.7346 10.8255 2.60691 3.18986
2453 1 1 12.9175 11.84 2.78273 0.646435
2353 1 1 16.0718 11.3241 1.79331 2.35316
600 1 1 17.1564 10.5165 2.41082 3.39862
7888 1 1 16.5765 10.6036 1.1772 0.641777
1079 1 1 17.9173 11.2136 2.45099 1.5486
750 1 1 0.33528 10.547 2.66129 0.362302
7128 1 1 18.3145 10.2291 1.76391 2.23357
7851 1 1 18.6344 11.9379 2.66739 0.99976
1528 1 1 1.18447 11.817 2.61667 1.26287
1006 1 1 3.43174 12.308 1.99262 2.02085
704 1 1 5.79576 12.8037 2.17647 1.25333
7755 1 1 4.75231 13.0769 2.38551 4.13919
563 1 1 6.86109 11.8808 2.1042 0.420661
163 1 1 7.87712 12.5265 1.76873 1.50897
7704 1 1 8.96127 12.3463 1.71133 1.65088
416 1 1 10.0426 12.216 2.23788 0.124351
7266 1 1 11.3746 12.4584 1.7484 2.12151
976 1 1 13.0922 12.2212 1.84578 0.197717
1189 1 1 14.7281 11.6487 2.3361 1.94061
7138 1 1 14.6157 12.5826 1.20233 2.51471
7999 1 1 14.9045 12.6821 2.38483 0.686216
1143 1 1 15.9506 12.2946 2.24296 1.22406
303 1 1 16.9105 12.5387 2.97054 1.04706
991 1 1 17.5545 12.2704 1.73566 0.900586
7772 1 1 0.167763 12.8414 2.32786 1.97705
559 1 1 1.23305 13.2127 2.17816 3.21461
4804 1 1 2.77501 13.4255 2.47591 1.30125
6464 1 1 2.4989 14.5866 1.64039 1.28024
1448 1 1 3.60252 13.9184 2.0598 0.0499084
7217 1 1 4.57248 14.208 2.71161 4.70761
7489 1 1 5.45597 13.4845 1.26828 0.699297
1210 1 1 6.67057 13.7376 2.00584 0.63949
7961 1 1 6.9814 14.2353 2.92715 1.00449
769 1 1 7.63591 13.8028 1.29004 2.76194
1432 1 1 10.4776 13.4124 2.55799 2.16458
2347 1 1 8.59469 12.9078 0.90191 2.67405
7705 1 1 12.1656 14.09 3.13414 1.0809
6872 1 1 12.9512 13.557 2.07356 4.90379
209 1 1 14.086 13.5604 2.45157 1.04489
1406 1 1 16.351 14.0668 2.97664 0.430302
1077 1 1 15.6017 13.4288 2.03912 1.55536
255 1 1 16.6144 13.8602 1.83849 0.357906
1910 1 1 0.112187 14.0168 1.84038 1.52779
1999 1 1 0.290803 15.6675 1.88608 0.40594
7404 1 1 4.08088 14.8293 1.41607 4.8178
1729 1 1 6.24073 16.1542 1.2429 2.82875
687 1 1 5.80202 14.3045 2.05431 0.907847
239 1 1 6.67041 15.0597 2.15949 2.85018
89 1 1 9.325 15.6546 2.03414 0.971444
640 1 1 10.6519 15.3387 2.0381 0.468526
2373 1 1 12.1221 14.4392 2.01773 0.582804
1439 1 1 12.7392 15.3893 2.99017 1.38861
7052 1 1 14.5605 15.9129 1.18324 0.330192
7444 1 1 14.7909 14.941 3.382 1.45217
7545 1 1 14.0867 14.6434 1.2027 3.12438
234 1 1 1.31297 14.8313 1.62793 3.26692
6824 1 1 17.9013 15.2541 2.35898 1.45475
1590 1 1 17.3392 15.0185 1.15738 4.05029
954 1 1 0.536378 16.827 1.91762 1.21879
1282 1 1 2.28491 15.4544 2.1379 1.60858
785 1 1 3.59148 15.8568 2.62875 1.10011
1634 1 1 2.33391 16.8763 1.76032 2.20439
1245 1 1 4.58578 16.9746 1.92757 1.11898
7957 1 1 5.49804 16.499 2.41689 0.868177
7303 1 1 6.0576 17.5101 2.48563 1.75964
1337 1 1 6.51764 16.3903 2.49337 1.1248
381 1 1 9.62046 16.3776 2.72544 0.501431
1453 1 1 9.94157 17.145 1.91641 0.453132
2224 1 1 10.714 16.5316 1.23278 0.21806
841 1 1 10.0197 15.8501 1.29462 2.77227
6582 1 1 11.343 16.042 1.9009 1.85265
809 1 1 13.1557 16.7599 1.54673 0.938696
948 1 1 12.3719 16.7104 2.43528 2.45039
1186 1 1 13.8631 16.4722 2.22398 2.52516
1986 1 1 15.0611 16.2398 2.79054 1.08055
7497 1 1 16.026 14.9872 2.43854 3.84606
500 1 1 15.5968 17.1309 1.95557 1.52817
7977 1 1 17.0239 16.9718 1.0187 2.40469
7116 1 1 18.3183 16.3318 1.75453 0.367339
7947 1 1 0.0948432 18.077 2.51773 0.470916
1509 1 1 1.8456 18.5688 1.30962 2.37073
332 1 1 2.91457 0.125117 2.46714 1.35908
215 1 1 3.88843 18.5223 2.807 0.585514
7613 1 1 6.28738 0.144415 2.36814 1.86546
504 1 1 5.10189 18.3104 1.42154 0.4209
96 1 1 4.68901 17.9507 2.70779 0.55988
763 1 1 7.72954 18.4065 2.33008 1.12576
1675 1 1 5.64938 18.4258 2.99693 2.06752
1416 1 1 6.74841 17.6268 1.50844 2.51055
1196 1 1 8.49633 17.2767 1.84591 1.21009
898 1 1 9.43665 18.1244 2.38129 0.987878
7452 1 1 11.3111 17.0335 2.25026 0.118823
1339 1 1 11.4211 18.2003 2.65792 0.362965
980 1 1 10.8986 17.7057 1.14967 0.538437
1588 1 1 12.0602 17.4285 3.33524 1.83646
1589 1 1 12.4586 17.618 1.97938 0.236045
505 1 1 13.4453 18.3119 1.07067 0.231596
7246 1 1 13.3516 17.5111 2.5987 1.69025
653 1 1 14.2656 17.9267 2.75697 0.424836
1269 1 1 15.3897 17.0743 3.1966 0.31679
1129 1 1 14.6742 17.6159 0.760133 0.263064
7744 1 1 16.1537 18.0034 2.31115 1.63408
1367 1 1 17.7903 17.6408 2.37758 1.95834
109 1 1 1.03792 1.68814 3.36552 0.38702
845 1 1 1.9376 1.39405 3.63544 0.493419
2089 1 1 4.41471 0.412688 4.23082 0.270248
547 1 1 4.71416 0.415119 3.31969 0.381683
7197 1 1 5.15341 1.2666 4.31235 0.683393
6777 1 1 5.42989 0.963982 2.61664 0.0893062
7982 1 1 7.09951 0.970489 3.80363 1.8068
171 1 1 6.1316 1.50605 4.24595 0.580419
1734 1 1 7.94352 1.33769 2.91723 1.00325
1466 1 1 9.78363 0.373806 2.96398 0.335805
2204 1 1 9.63086 0.722198 4.2283 1.44896
7821 1 1 10.3243 0.0407306 3.86851 1.78694
7539 1 1 10.8781 0.911629 2.57257 3.53916
2867 1 1 12.739 0.365345 3.69329 4.86598
7422 1 1 11.5909 0.279704 3.98295 1.88574
867 1 1 13.7247 0.783758 4.29225 0.907704
1007 1 1 15.0988 0.291437 3.08287 0.403938
772 1 1 15.9553 1.42709 3.62142 1.68881
126 1 1 17.2257 18.6028 3.40971 0.357468
194 1 1 18.6322 1.22951 3.79037 0.935852
3242 1 1 18.099 0.796753 5.16904 0.347225
7937 1 1 1.71565 2.51483 3.7294 4.91579
633 1 1 4.04962 2.22528 4.26893 2.12892
1738 1 1 2.56533 2.25371 3.30202 1.47999
2030 1 1 2.84427 1.43135 4.02679 0.267479
1365 1 1 3.91083 2.38549 2.75694 0.302234
1309 1 1 6.28207 1.79965 3.02636 0.683495
1488 1 1 6.87757 2.19206 3.92925 1.21992
1543 1 1 8.05952 2.38606 2.64972 2.96
1661 1 1 10.0452 2.25095 3.81292 1.59115
7535 1 1 8.84674 2.09146 3.44917 0.396958
189 1 1 8.49956 1.80925 4.5266 2.09167
2177 1 1 10.2257 2.8707 2.54009 2.05984
544 1 1 10.9306 2.04065 4.31781 0.759505
1044 1 1 11.3091 2.20961 2.50711 4.12779
742 1 1 13.0607 2.38142 3.4842 0.353537
3071 1 1 14.0151 2.82231 4.06546 0.186677
7830 1 1 15.5669 3.0704 3.66879 0.544794
1354 1 1 14.9232 1.95955 3.62073 0.351108
7758 1 1 16.1657 3.37198 4.79231 0.813084
7423 1 1 17.5574 1.46509 3.42648 1.2618
874 1 1 0.493981 2.62381 3.56432 4.90593
509 1 1 1.62627 4.23583 3.18183 0.138679
966 1 1 18.7731 4.45246 4.21859 0.304587
2033 1 1 1.93268 4.7145 4.04487 1.29379
2917 1 1 2.15056 4.87633 2.3844 0.593164
2559 1 1 2.01428 3.47137 3.54359 0.942113
7785 1 1 4.69651 3.17409 3.30697 1.96342
1348 1 1 5.81604 2.58932 3.32421 0.000301821
7215 1 1 4.43887 4.33362 3.34415 0.441444
656 1 1 4.84093 3.94397 4.19687 0.843404
7924 1 1 6.23891 3.91405 3.97487 0.163429
661 1 1 6.71743 3.18448 3.09414 0.94021
1098 1 1 7.12795 3.40699 4.34376 0.965262
6477 1 1 8.19303 3.24826 3.46551 0.193969
1302 1 1 8.09091 4.05665 4.50866 4.22991
418 1 1 9.30925 3.80905 3.42146 1.14792
6060 1 1 11.8146 3.85914 3.48045 0.149519
6136 1 1 10.146 4.36859 4.07542 1.26046
387 1 1 13.2182 4.12245 2.92183 1.39684
7185 1 1 14.039 4.1767 3.75068 1.07407
636 1 1 13.3247 2.98641 2.67525 0.192208
1539 1 1 14.651 3.70239 2.99822 0.0669839
1422 1 1 15.5062 4.1931 3.72925 1.02736
1041 1 1 16.9163 2.57761 3.0124 1.23253
2202 1 1 17.8396 3.59439 3.36516 0.915002
7284 1 1 18.6442 5.3019 3.54937 0.444012
1374 1 1 1.02186 5.17906 3.4519 0.762085
7841 1 1 2.1695 5.65411 3.62962 1.0841
6026 1 1 2.95745 4.44967 3.27562 0.811602
3 1 1 4.39586 5.76293 2.85385 3.74071
82 1 1 7.08995 4.1943 3.50518 0.572528
985 1 1 5.87821 4.92954 3.71635 1.21437
7123 1 1 6.12809 4.08793 2.82419 0.820336
533 1 1 7.03583 5.46209 4.29008 1.22668
214 1 1 8.08471 5.02903 4.17935 3.38727
7663 1 1 9.16959 4.37116 4.49272 0.822128
1291 1 1 10.3689 4.35452 2.4643 0.222673
7644 1 1 11.4857 5.14911 4.25668 1.71688
588 1 1 13.2165 5.03312 3.67955 3.04886
3586 1 1 15.7053 5.15681 3.01222 0.908985
7725 1 1 14.6608 5.04784 3.69552 0.440326
4139 1 1 16.4694 4.45054 3.54892 1.91611
928 1 1 17.7608 5.81273 3.13214 1.13436
7646 1 1 17.9325 4.9502 4.52671 3.0892
7992 1 1 0.584541 6.21127 4.04271 1.11608
1002 1 1 2.92061 6.15323 4.10902 1.81961
6804 1 1 1.35654 6.59549 4.65043 1.26663
2162 1 1 2.55651 7.45438 3.63396 1.46323
153 1 1 4.24199 6.64056 3.88098 0.601626
5747 1 1 5.30498 6.12057 3.99032 3.67919
2608 1 1 5.53881 7.35456 3.03043 0.84771
117 1 1 7.4389 6.38798 3.04203 1.86648
2311 1 1 5.81802 6.80552 4.60566 2.01173
7683 1 1 7.25716 6.43398 4.75939 2.58945
2589 1 1 8.13091 6.49089 3.9808 1.36772
553 1 1 8.95564 6.547 5.12626 7.89637
7782 1 1 11.3744 6.439 4.48342 3.50662
1784 1 1 10.7157 7.26702 3.62334 0.040821
1460 1 1 10.384 6.1185 2.90081 1.63087
1927 1 1 12.4833 5.84919 3.18982 0.916063
591 1 1 13.817 6.0053 3.70197 1.34245
240 1 1 14.9262 5.92315 4.1517 0.621974
102 1 1 16.1865 5.78798 4.16116 2.1944
2798 1 1 17.8912 6.47111 4.61282 2.42809
1728 1 1 18.4778 7.1198 3.3149 0.348692
107 1 1 0.841521 7.61253 3.53693 2.0925
667 1 1 18.7606 8.52696 3.81161 0.712944
7242 1 1 1.27317 8.57226 3.48035 1.2785
7641 1 1 2.17127 8.18119 4.2064 1.24795
925 1 1 3.41813 7.97334 4.22665 1.65699
1717 1 1 3.75087 7.32623 3.0812 1.99264
5817 1 1 5.75512 8.44588 3.37234 0.0957242
1217 1 1 6.62085 7.88442 3.92687 1.07786
404 1 1 5.87107 8.87573 4.96118 1.87019
1194 1 1 7.63158 8.41627 3.06246 0.237539
604 1 1 8.33039 7.93986 3.64644 0.776874
345 1 1 7.54013 8.66108 4.23353 0.0701543
7538 1 1 9.81248 9.05764 3.82358 6.16036
7322 1 1 9.45511 7.31451 3.97805 2.17589
216 1 1 9.98873 8.37755 3.04493 1.09412
1069 1 1 11.9283 6.72948 3.62479 2.38178
557 1 1 11.292 8.21384 3.84261 0.707522
1833 1 1 13.0808 8.28676 3.01301 1.97466
7739 1 1 12.3588 8.20881 4.35283 2.66262
6619 1 1 14.0501 7.1785 3.34832 2.14994
7756 1 1 13.748 8.00493 4.21067 0.403551
7983 1 1 15.4473 7.35995 3.3153 0.8781
957 1 1 14.7054 7.62661 4.29434 2.9749
622 1 1 17.1128 8.65831 4.06497 2.06524
7795 1 1 16.3344 7.9946 3.52066 2.37569
2151 1 1 17.259 7.86302 3.01312 1.92617
230 1 1 0.524247 9.844 3.32767 0.383482
765 1 1 3.00559 9.87402 3.32784 2.60304
626 1 1 3.93294 9.47175 3.98667 2.48714
478 1 1 5.33823 10.0556 2.92473 0.355063
842 1 1 4.73244 9.38781 3.58654 0.533358
7472 1 1 6.24575 10.4691 3.59789 1.50434
983 1 1 7.11146 9.6432 3.45309 0.0840377
1105 1 1 10.296 9.32162 2.7603 1.43316
3068 1 1 11.2626 9.31665 4.11627 1.03546
3406 1 1 11.3262 9.87841 2.44136 0.286433
1802 1 1 14.0945 8.26593 2.98056 0.63278
2578 1 1 13.1717 8.76774 4.6699 0.70183
1250 1 1 15.2465 8.65854 4.28522 1.33825
7470 1 1 14.8907 9.99783 4.48956 0.638186
1184 1 1 15.968 9.52712 3.82832 1.23451
1677 1 1 16.8229 9.20384 3.04334 1.24826
1287 1 1 17.0844 9.89894 4.07093 2.77126
1082 1 1 0.677226 10.3691 4.23396 6.96551
1709 1 1 18.1218 9.48024 3.45339 2.11346
369 1 1 1.12164 10.7561 3.4494 1.47922
203 1 1 0.986716 11.3817 4.32446 0.534815
7541 1 1 1.98864 11.6889 4.28032 3.29217
834 1 1 2.7038 10.9837 4.201 2.3357
134 1 1 4.02688 11.7903 3.88663 0.422877
6842 1 1 4.59472 11.5218 2.45762 1.36095
6975 1 1 4.60083 10.9643 4.29094 1.68683
970 1 1 6.01551 11.2116 4.25229 2.06633
1475 1 1 7.35368 11.5188 4.66663 1.70679
95 1 1 7.65975 11.2435 3.45329 2.8461
1968 1 1 8.89623 9.82123 3.90665 2.165
6693 1 1 9.9965 10.5578 2.92578 0.536948
7798 1 1 11.1115 10.6974 3.25831 0.629584
7531 1 1 10.9263 12.0389 3.50456 1.44927
7156 1 1 12.074 10.0762 4.01016 0.0461128
1848 1 1 11.8604 11.3928 3.69323 0.0946499
38 1 1 14.2251 10.3304 3.38016 0.161717
1072 1 1 14.619 11.639 3.39818 5.11071
2638 1 1 15.439 10.9205 3.00981 0.406544
1438 1 1 15.9221 10.4632 4.26111 1.16204
6563 1 1 17.718 11.0921 4.04534 3.95258
1836 1 1 16.5987 11.381 2.77266 2.37264
1793 1 1 17.9585 10.3745 3.09888 1.31136
259 1 1 0.418803 12.1693 3.46421 1.19102
178 1 1 3.10796 11.5121 2.70898 3.37971
840 1 1 3.02448 12.0503 3.70575 0.14389
1264 1 1 5.05681 13.0118 3.69483 1.06743
487 1 1 7.94045 12.9955 4.30956 2.09884
7139 1 1 7.87524 12.0207 2.82326 2.39197
630 1 1 9.20287 11.2219 2.82186 1.36873
3108 1 1 11.4513 13.2091 2.52293 2.98118
7834 1 1 12.4447 12.7365 2.90119 2.81614
1904 1 1 13.3884 11.6378 4.08921 0.568222
1799 1 1 13.7503 12.692 4.70535 0.680298
451 1 1 14.1133 12.7872 3.35718 2.16334
1187 1 1 16.1445 12.001 3.63274 3.22613
7089 1 1 18.6238 11.4971 4.23259 0.792595
7670 1 1 0.32014 13.2382 3.26001 0.840818
5605 1 1 1.05758 13.8644 2.95231 1.23239
6665 1 1 2.07162 13.4704 3.45935 0.917776
245 1 1 2.99276 13.2014 4.03884 0.460713
7811 1 1 3.9115 13.738 3.42658 1.37386
481 1 1 6.83017 12.1816 4.11213 4.82336
844 1 1 5.81406 14.5346 3.26076 1.9513
885 1 1 7.34271 14.6376 4.41546 1.03861
53 1 1 8.02497 13.5249 2.93563 0.458798
221 1 1 8.88677 13.5866 4.27969 2.17075
1295 1 1 9.53357 12.9633 3.65517 2.24099
734 1 1 9.283 12.5908 5.19461 2.64143
7893 1 1 10.6688 14.073 3.50773 2.66102
7040 1 1 11.4509 13.0816 3.64931 1.1221
7551 1 1 10.8604 13.5085 4.6517 1.96942
7180 1 1 12.6763 13.307 3.94845 0.693239
1200 1 1 13.2554 14.1619 3.09283 1.47527
888 1 1 13.7111 13.9206 4.30882 0.315703
1676 1 1 17.4344 13.6479 4.59856 1.07914
854 1 1 16.4821 13.3547 4.15396 0.607716
6762 1 1 18.2664 13.9524 2.8361 1.36099
1340 1 1 18.209 13.8814 3.97242 0.353172
7826 1 1 0.727244 15.4787 2.69645 1.09302
642 1 1 1.62394 14.7033 2.95745 0.333622
7840 1 1 2.90086 14.4771 3.27246 0.613943
7051 1 1 3.37049 16.0032 3.62412 0.784344
480 1 1 4.25931 15.1103 3.26887 3.76688
1505 1 1 3.05779 14.9929 4.52611 2.70453
1128 1 1 5.63896 15.5473 3.47236 0.236861
7174 1 1 5.16377 15.2424 2.39645 0.417259
800 1 1 7.74176 15.593 4.20356 2.16554
1930 1 1 6.63213 15.0852 3.50266 1.1076
1940 1 1 7.86434 14.6647 3.30391 4.53991
6946 1 1 9.84664 15.4631 2.90314 0.655413
7678 1 1 8.4684 14.8454 4.22041 1.92602
7856 1 1 9.72618 14.2891 4.56387 0.606364
3078 1 1 11.6249 15.5673 3.69972 1.89842
433 1 1 11.6846 15.4243 2.7067 2.80822
1167 1 1 11.6619 14.379 4.72709 0.338963