ITEM: TIMESTEP
4200
ITEM: NUMBER OF ATOMS
8000
ITEM: BOX BOUNDS pp pp pp
0.0000000000000000e+00 1.8820720577620570e+01
0.0000000000000000e+00 1.8820720577620570e+01
0.0000000000000000e+00 3.7641441155241139e+01
ITEM: ATOMS id mass type x y z v_temp
7088 1 1 17.7022 18.4722 0.279584 2.90266
677 1 1 1.06738 0.66288 0.655233 1.16133
6814 1 1 5.41046 0.119401 1.66246 3.57728
2103 1 1 6.36535 18.8028 2.02878 1.83405
1134 1 1 7.97502 2.43758 0.27144 1.94731
6551 1 1 8.91721 1.61115 0.742864 0.7234
1588 1 1 11.1474 1.24057 1.56141 3.31624
6121 1 1 9.57697 18.1388 1.06159 1.0038
94 1 1 11.5032 0.102849 0.0427478 2.22136
1044 1 1 11.9249 0.654941 36.4998 0.849738
7796 1 1 12.276 1.01822 0.391632 0.174728
7301 1 1 13.1793 0.852217 0.618273 1.76708
7423 1 1 14.4639 0.91944 0.563366 2.30022
7960 1 1 15.7862 1.44197 1.23142 1.01988
1479 1 1 16.9793 18.7847 37.0094 1.52364
2221 1 1 15.3903 0.331113 0.761075 1.19843
5355 1 1 0.639396 2.22477 0.714713 0.501223
859 1 1 2.61411 2.37787 1.13013 0.223659
776 1 1 2.88338 1.26451 0.334162 0.451607
6494 1 1 5.22708 3.35691 37.5698 0.845182
7412 1 1 4.48136 2.08672 37.5224 0.61363
2824 1 1 4.15556 1.74177 0.912349 0.12479
7604 1 1 6.49343 2.03821 0.554027 2.19685
7653 1 1 5.44296 1.60905 36.7612 1.65153
1266 1 1 6.68717 1.6653 2.19038 4.33323
175 1 1 7.05965 2.7894 1.34654 2.3594
7032 1 1 9.4627 2.53999 0.784631 0.210634
437 1 1 10.1226 0.606298 1.21131 1.90168
1563 1 1 12.6319 1.8227 0.926617 0.591245
7431 1 1 11.5076 2.80675 1.55173 0.601139
1806 1 1 11.8434 3.09116 37.6034 0.231212
350 1 1 13.1352 2.60751 37.129 1.903
828 1 1 13.9296 2.53708 0.164037 2.30659
636 1 1 14.3461 1.88321 1.02493 0.464637
1183 1 1 16.7974 1.42202 0.597738 0.277007
877 1 1 15.9786 2.28243 0.474411 2.66105
6845 1 1 16.9184 1.94273 1.5391 1.56562
2202 1 1 1.57265 1.93256 1.62521 3.72936
791 1 1 1.23672 3.07543 1.0173 0.869441
6006 1 1 3.28463 1.51323 1.45999 1.41347
314 1 1 2.54597 5.26933 1.03685 3.57266
406 1 1 4.48301 3.5239 36.7155 1.12328
367 1 1 3.4471 2.77609 37.6361 1.28305
6777 1 1 4.37815 3.97105 0.090902 1.48124
324 1 1 5.2083 3.38123 0.911972 2.75259
454 1 1 8.35985 4.29957 37.5143 0.47159
1085 1 1 6.93363 3.77359 0.612975 0.13186
5462 1 1 7.94254 3.24934 1.41122 3.62258
2244 1 1 10.5625 1.56659 0.318716 3.28222
285 1 1 10.5724 2.69682 1.21041 0.638548
7115 1 1 13.0425 5.04199 36.3505 1.45265
7155 1 1 13.7445 4.14861 0.492632 1.18319
430 1 1 13.2006 3.70161 1.16116 1.67022
7392 1 1 14.0357 2.3724 36.5633 1.13548
7440 1 1 17.003 3.95596 1.74294 1.36475
7660 1 1 0.931149 4.65471 1.58487 5.72453
190 1 1 1.87645 4.5274 0.62067 0.768426
7346 1 1 0.889934 3.99876 0.497528 2.6662
1562 1 1 2.60445 6.30084 0.542098 2.51173
733 1 1 3.43878 5.56356 1.37995 3.40102
7260 1 1 3.34423 3.71749 37.502 1.14053
7564 1 1 8.25667 5.16949 0.560026 2.20686
7450 1 1 9.855 4.74618 37.6375 1.669
973 1 1 10.7935 4.95082 1.01226 1.3025
5741 1 1 11.316 5.6817 1.53249 1.50837
6949 1 1 12.2308 6.15545 1.96214 1.35153
6997 1 1 13.0703 4.01578 2.23468 0.477168
7544 1 1 16.3685 4.66872 34.4353 2.63979
7273 1 1 17.446 4.08719 0.503061 0.978994
552 1 1 17.2963 6.04072 1.52657 0.169263
137 1 1 17.9874 4.81685 1.34667 1.35901
1020 1 1 0.070617 5.71023 1.28354 1.12358
7594 1 1 18.3251 4.73216 0.263902 0.608663
1037 1 1 1.70824 7.1419 0.753087 3.86244
7965 1 1 0.375607 7.6995 0.237082 0.345618
1714 1 1 1.86171 5.95916 37.5749 0.19118
762 1 1 1.9997 8.26117 0.31849 0.519292
135 1 1 4.38186 6.04452 1.16937 1.44023
7703 1 1 6.4047 4.59752 0.416177 0.853726
6441 1 1 8.81991 7.42986 1.68504 1.46235
1296 1 1 9.57815 6.56164 0.49041 0.0980626
187 1 1 8.72525 5.93914 1.05471 1.07572
997 1 1 8.42951 6.86974 0.340895 0.19426
5812 1 1 13.2648 5.85573 1.44638 0.745937
1784 1 1 12.1855 4.20096 0.573166 0.561202
2197 1 1 15.6812 6.5686 1.8688 1.32341
469 1 1 15.2584 6.2051 0.551949 1.97684
6476 1 1 15.0955 5.07699 0.215141 3.35194
7318 1 1 17.6452 5.56525 0.585216 0.883722
6561 1 1 18.2623 6.51846 1.33776 5.29212
7844 1 1 0.764404 5.40166 0.0783723 1.16872
205 1 1 0.94119 8.3799 1.65958 0.209977
7570 1 1 0.871452 8.66396 0.603564 1.9455
357 1 1 2.62533 7.98946 1.13725 1.30364
750 1 1 2.18455 8.9245 1.52976 2.74098
922 1 1 5.52901 8.68071 0.527339 0.904058
174 1 1 4.85375 7.72309 1.51814 0.292951
7738 1 1 6.56412 8.3034 37.6299 1.57048
1681 1 1 8.70117 7.80356 0.359712 0.904551
1001 1 1 9.11364 8.41528 1.25157 1.77405
7573 1 1 9.59762 7.4498 37.023 3.06547
6907 1 1 10.3088 7.6913 1.02188 0.774376
7913 1 1 12.2065 6.92113 0.560812 0.561154
7548 1 1 13.9553 8.23736 1.22392 1.2306
79 1 1 14.4182 6.09353 37.5114 3.81403
7411 1 1 13.5286 7.30223 0.522707 3.57694
669 1 1 14.8731 7.2571 0.689302 1.74892
6959 1 1 14.4609 8.30163 36.5521 5.24171
7424 1 1 17.062 6.77437 0.691717 0.272733
1401 1 1 16.8738 7.86074 37.6331 1.40844
875 1 1 17.5923 7.41019 1.39387 0.416769
6828 1 1 0.450775 7.2775 1.26042 0.264429
1596 1 1 1.433 9.57943 2.00623 0.665542
6343 1 1 1.20761 9.68085 0.358743 0.948098
6767 1 1 3.52599 9.81309 0.247249 0.0913185
7846 1 1 2.0607 10.2054 37.4156 5.11751
86 1 1 3.62988 8.61932 0.77707 2.54008
7144 1 1 4.4479 9.1263 0.219816 3.81074
7513 1 1 5.61106 8.35148 2.01756 1.29144
6380 1 1 6.93413 9.8674 0.189137 0.133089
6235 1 1 7.6641 9.2902 1.60605 0.172087
7002 1 1 8.95838 8.81609 0.313862 1.25757
7643 1 1 9.89149 9.20832 1.02335 2.74526
7019 1 1 10.1256 8.46936 37.2847 0.201647
7943 1 1 12.4625 8.05401 0.736429 4.00513
543 1 1 12.7973 7.38172 1.71803 5.1563
5838 1 1 15.561 10.2797 37.5486 2.03676
1120 1 1 14.7319 8.83935 1.90469 1.90343
600 1 1 16.3576 9.3859 37.3192 5.01792
2072 1 1 15.3998 11.0226 1.77658 0.474321
5857 1 1 17.0494 8.44773 1.05923 2.21234
736 1 1 18.6271 8.33194 0.931438 0.611718
7397 1 1 0.369267 9.30725 1.33937 0.623523
7800 1 1 18.2586 8.45511 37.3226 1.06944
7581 1 1 0.194318 9.22966 0.222939 1.21292
6599 1 1 0.851044 10.4369 1.16666 0.590494
7567 1 1 2.34065 11.3127 36.9769 1.52831
439 1 1 3.44668 11.1478 1.65245 0.74102
1172 1 1 4.39473 10.8178 1.16051 0.577471
191 1 1 6.27706 12.3661 1.60659 2.60417
7065 1 1 7.06365 10.3386 1.53398 1.37701
236 1 1 5.44248 10.6498 37.168 8.17939
6933 1 1 7.71229 10.4256 36.2462 1.07353
238 1 1 7.91527 10.8239 0.36877 1.50612
574 1 1 9.38473 9.44711 37.3281 1.26457
6631 1 1 8.59542 11.0491 1.18105 0.0999936
7949 1 1 8.30091 9.55639 37.4273 1.18345
3406 1 1 10.1424 10.2131 0.408797 2.81434
7834 1 1 13.2119 12.5168 1.22457 0.880358
1584 1 1 12.2528 10.2231 0.912289 1.7959
932 1 1 13.4725 9.81545 0.901947 0.879285
627 1 1 16.4558 10.2412 0.54059 2.11088
1438 1 1 17.709 9.24459 0.997985 0.820616
6752 1 1 17.2827 9.39542 37.5697 3.53312
991 1 1 18.7817 11.5496 1.50982 4.17004
7555 1 1 18.602 10.4765 0.56969 1.25561
1793 1 1 0.18615 11.6833 0.0875284 4.29283
962 1 1 1.76666 11.85 1.18843 1.48189
7060 1 1 3.0968 11.7622 1.00392 0.701841
340 1 1 5.38833 11.8843 37.3641 1.97485
662 1 1 3.67924 12.7439 1.06924 1.03075
704 1 1 6.28725 13.9575 1.78432 0.0584728
7351 1 1 8.08807 12.0594 0.45552 2.37192
2234 1 1 9.36473 11.4336 36.753 0.98225
6693 1 1 10.8659 12.1147 0.463702 0.843441
7749 1 1 10.0984 11.2644 37.4454 0.486789
2320 1 1 9.5321 11.165 0.688805 3.52961
6723 1 1 12.4866 11.597 0.222673 0.739435
7497 1 1 14.8246 11.8155 1.07533 0.977609
1997 1 1 16.1422 11.4222 0.409233 0.44916
818 1 1 18.658 12.4026 2.02621 2.95877
1399 1 1 17.8767 10.826 37.5994 0.581594
924 1 1 18.4507 14.0291 1.4013 2.40557
6411 1 1 1.0067 13.694 37.1386 1.4311
6464 1 1 0.207868 12.755 1.12005 0.486943
7248 1 1 3.6374 14.0441 1.19378 2.14429
7404 1 1 2.56602 14.0611 1.18357 1.44989
7836 1 1 3.98177 14.2031 37.299 0.270065
7457 1 1 5.0177 13.0487 0.229417 2.82282
7174 1 1 5.29412 14.6472 1.09535 0.219408
163 1 1 7.55579 13.0463 0.817479 4.13174
970 1 1 6.93979 14.5855 1.1825 0.560104
678 1 1 8.42421 14.1345 0.829576 0.777606
64 1 1 9.10614 13.0757 1.26608 1.54546
6399 1 1 9.59902 14.0753 1.22847 1.01731
386 1 1 10.1979 13.4528 37.6059 1.51911
6873 1 1 9.81413 12.7279 0.546123 0.658599
830 1 1 10.5432 13.3129 1.67655 2.02776
2106 1 1 11.8852 13.8635 37.531 2.83582
375 1 1 13.2801 13.7819 37.559 0.0974196
209 1 1 14.4656 13.0948 0.0923613 3.91586
5900 1 1 13.3532 14.4568 0.848685 1.70747
1749 1 1 14.6199 14.3207 0.747304 1.33507
711 1 1 15.5204 13.4546 0.461242 0.612762
7138 1 1 17.0345 13.7758 37.4949 1.64133
346 1 1 18.2474 12.7957 0.332015 0.898026
918 1 1 0.570565 14.3959 0.71991 1.6229
1136 1 1 1.07832 16.0159 37.1226 3.19212
6637 1 1 1.5509 13.8918 0.602148 0.261336
7957 1 1 4.37608 14.2821 1.86404 0.494832
642 1 1 2.85898 16.8626 37.4699 2.55332
639 1 1 4.3055 14.775 0.664799 0.194162
569 1 1 5.80856 14.0045 0.548336 0.78192
6673 1 1 8.48522 15.5101 37.3891 0.858923
1729 1 1 8.66424 15.4534 1.24291 2.51269
504 1 1 7.99353 14.2456 1.89512 1.32308
7736 1 1 10.7493 15.5483 0.855222 0.637634
239 1 1 11.3981 13.1627 0.754877 3.57241
472 1 1 12.5021 15.255 0.561892 3.69972
2373 1 1 12.0391 14.3375 1.10324 2.53259
1186 1 1 13.238 16.3119 0.466566 1.10425
7011 1 1 16.1768 15.8528 0.872783 1.60256
7338 1 1 16.848 14.4595 0.786825 3.55576
296 1 1 17.3404 15.5807 0.768422 1.0718
7977 1 1 0.376975 16.6993 0.154654 0.499912
7863 1 1 0.852042 16.311 1.22689 0.859235
668 1 1 1.63394 16.7664 0.166355 0.134946
1634 1 1 2.10805 16.4393 1.4219 4.03757
7097 1 1 3.4786 16.1872 1.05408 0.706275
332 1 1 4.75585 15.5138 1.21126 0.0965574
7300 1 1 5.71963 17.7537 0.0222594 2.59513
7297 1 1 7.30548 15.4845 0.708399 1.68786
287 1 1 8.06046 17.0367 1.26197 0.17152
414 1 1 8.79288 17.0941 0.261009 2.93198
5509 1 1 9.14104 16.2696 1.32439 0.942772
1196 1 1 9.89587 16.9817 36.8291 1.67454
6228 1 1 11.2759 17.7928 0.201236 3.73289
7568 1 1 13.4478 16.8229 37.1098 0.289631
809 1 1 11.5184 16.4665 0.698544 2.52039
653 1 1 13.3102 17.3949 1.38828 0.255824
6982 1 1 14.6735 16.8151 37.1086 2.43733
2506 1 1 14.9853 17.2233 1.13847 0.696577
579 1 1 17.2267 16.5796 37.1382 4.54565
273 1 1 15.998 16.6015 1.65348 3.80497
1216 1 1 18.3297 16.1946 0.57979 1.12332
328 1 1 0.697463 18.3493 0.799281 4.96667
647 1 1 2.14001 18.0205 2.16156 1.32937
1469 1 1 3.33177 16.8165 2.02011 3.39237
829 1 1 2.20993 1.1268 1.30134 3.69138
1573 1 1 5.32008 0.510444 0.455288 1.49931
758 1 1 4.4843 17.5051 1.12863 0.891841
6079 1 1 6.31936 18.4796 0.786765 0.0387716
7613 1 1 6.7878 17.605 1.0943 3.89937
6855 1 1 8.3409 0.434017 0.761384 2.89863
895 1 1 7.74588 18.2921 0.60028 2.10119
7452 1 1 10.6702 17.4362 0.911013 3.2625
7753 1 1 10.5951 18.5365 1.29218 1.09124
281 1 1 12.5395 18.006 1.70757 0.293182
500 1 1 12.3797 18.4624 0.716204 4.72298
1413 1 1 14.4565 18.107 1.10175 2.88951
7529 1 1 16.5397 18.7223 0.391156 0.270873
1999 1 1 18.1557 16.9614 37.4975 0.542399
1713 1 1 1.22657 18.7784 2.91752 0.725104
643 1 1 3.20958 18.0247 1.7636 1.47568
1509 1 1 1.59662 18.673 1.20747 0.947636
2026 1 1 6.20743 17.8233 2.52908 7.16444
1365 1 1 3.80085 1.68367 2.35555 1.83737
104 1 1 4.1175 18.595 3.20125 1.15182
1750 1 1 5.98567 2.02858 2.81489 0.336002
1348 1 1 6.23975 0.415249 3.01028 2.34045
6581 1 1 8.53507 18.7187 1.61649 2.25948
6040 1 1 8.5711 1.30066 2.25141 3.49432
1140 1 1 9.81338 0.321679 2.88296 0.674827
7028 1 1 12.4391 1.11399 3.11196 0.562021
7340 1 1 12.577 0.173382 2.09417 0.690258
7185 1 1 13.9955 0.693315 1.68457 0.589328
1339 1 1 14.5276 18.3901 2.38195 0.421178
1973 1 1 15.4975 17.8946 1.87077 3.67896
1041 1 1 15.8542 0.0627774 1.71764 2.05541
1511 1 1 18.0925 0.723315 1.80859 1.5881
1607 1 1 18.4217 1.33716 2.7928 1.4883
3242 1 1 0.037834 0.218421 2.68741 1.5581
508 1 1 18.8024 1.17855 1.11146 0.498863
7679 1 1 0.794678 0.909012 1.6944 1.98757
1198 1 1 3.10841 0.682243 2.4027 5.49906
7718 1 1 3.00393 3.39832 2.21434 1.24403
7773 1 1 4.01518 2.78449 2.11337 0.0917819
547 1 1 5.56926 1.80931 1.28068 0.422581
7751 1 1 6.45632 0.860291 1.34821 1.36788
6866 1 1 6.83855 3.24936 2.58459 5.34556
108 1 1 9.26612 2.92673 2.50117 2.13362
6363 1 1 8.06372 2.22058 1.47592 2.6826
1661 1 1 10.0733 1.815 1.27724 2.29344
6659 1 1 11.8465 2.02005 2.40272 1.81762
6241 1 1 11.5634 3.0633 2.45341 0.886637
1007 1 1 12.8304 1.50069 2.19227 2.22132
3932 1 1 15.7593 3.59299 2.25157 1.13734
1928 1 1 15.5891 1.06591 2.48189 2.31788
3225 1 1 15.104 2.52461 2.096 1.67035
1591 1 1 16.739 3.38388 2.63969 3.02806
1672 1 1 0.0740663 1.73326 1.91736 1.82497
31 1 1 2.26536 3.64372 1.26048 1.66071
2558 1 1 1.85316 4.4616 3.09417 3.60153
1045 1 1 3.33061 3.62773 1.11777 0.559785
6026 1 1 3.04484 2.46499 3.03137 6.45215
7785 1 1 4.46952 3.54043 2.78785 0.0413977
6083 1 1 5.95738 4.05581 2.44215 0.0440157
6605 1 1 6.11292 2.72859 1.70901 1.69414
7625 1 1 7.57162 4.0015 1.98103 2.36093
593 1 1 8.15031 2.95206 2.55188 0.418578
1381 1 1 9.24623 3.71789 0.717005 5.46216
354 1 1 8.37927 4.33964 1.1894 0.484163
7094 1 1 10.5672 5.20535 2.34701 0.167508
7719 1 1 10.5492 2.3444 2.15033 0.563192
726 1 1 13.0633 2.66374 1.54785 0.653461
1270 1 1 13.8651 3.22353 2.56885 1.09182
3071 1 1 15.9663 2.69161 1.59791 1.08566
874 1 1 17.4929 3.99482 3.23092 0.262945
7697 1 1 0.779743 2.60449 2.18388 1.21046
6423 1 1 17.4354 3.06495 2.10306 2.20527
982 1 1 1.57626 5.28434 2.189 0.441905
602 1 1 1.34396 5.47887 0.94324 2.82289
1310 1 1 2.68232 4.96792 2.41336 0.962999
1717 1 1 3.46438 4.27162 2.0419 0.57248
1279 1 1 4.41878 3.97444 1.82579 0.590834
7879 1 1 5.158 4.45808 3.6322 1.14017
7612 1 1 7.09464 4.76472 2.74802 0.438721
1273 1 1 4.90634 4.68095 2.36615 2.43671
6424 1 1 5.60885 4.88349 1.18698 3.03454
1237 1 1 9.89086 4.58399 1.03491 1.15817
604 1 1 10.6611 4.18784 2.22369 1.23957
7466 1 1 11.6696 5.26448 2.458 2.85076
742 1 1 15.3487 5.25603 3.63135 2.42289
7468 1 1 15.4732 4.62874 2.15431 0.050873
126 1 1 15.902 3.88295 1.12799 0.817519
1539 1 1 15.9018 5.44532 1.23874 1.70586
1648 1 1 15.6183 5.5329 2.55314 2.07136
7633 1 1 17.0066 6.51609 3.33112 0.629456
6640 1 1 17.9214 5.61322 3.29389 1.49909
1715 1 1 0.570694 6.40341 1.81648 1.0036
966 1 1 1.57972 7.44016 1.79683 0.115906
7944 1 1 2.51483 7.02039 1.72558 1.34531
6987 1 1 3.6631 6.69425 1.61478 0.551554
2559 1 1 3.63746 6.94154 2.87738 3.76217
6815 1 1 3.76971 7.72709 1.50297 1.48125
615 1 1 4.87458 6.6694 2.48041 0.914384
2608 1 1 6.67673 6.83746 0.567473 0.760871
7472 1 1 6.86862 6.01814 1.45514 2.20933
7482 1 1 8.93998 5.16855 1.96575 1.59572
1224 1 1 11.0495 6.23375 2.50242 2.09713
1790 1 1 11.0897 6.3415 3.64455 1.55043
277 1 1 7.86116 5.38755 2.50503 3.12674
6497 1 1 7.2835 7.51171 1.68621 4.14594
6044 1 1 13.0339 4.98202 2.44972 1.54881
1537 1 1 13.2724 6.30854 2.84223 3.7274
486 1 1 11.7937 7.16644 2.06366 6.53542
374 1 1 13.9083 4.5233 1.52595 1.10135
1377 1 1 14.7037 5.53418 1.52546 3.21829
223 1 1 14.8653 7.70431 3.39469 1.30587
651 1 1 16.5334 6.25413 2.29606 0.213965
235 1 1 17.6873 6.39154 2.39436 0.726406
573 1 1 18.6804 6.01534 2.4219 0.238392
7358 1 1 1.31185 8.19964 2.62667 0.486168
5817 1 1 2.55733 8.04082 2.90606 2.78159
158 1 1 3.73046 8.44625 2.61558 1.43848
842 1 1 4.65178 7.74569 2.61646 4.47551
1751 1 1 6.17281 7.91037 1.18606 1.79655
6253 1 1 8.24025 8.15464 3.1983 3.73767
8000 1 1 5.89301 7.40406 2.30772 4.98736
1069 1 1 6.78191 8.50274 1.83013 0.305337
1217 1 1 7.96227 8.21062 1.12021 0.426957
2054 1 1 10.7593 8.76571 1.45262 0.25472
7644 1 1 9.786 7.12273 2.02573 1.64432
21 1 1 10.7841 7.84327 2.23802 2.61293
675 1 1 13.3143 7.52426 3.71727 1.48935
1193 1 1 14.7409 7.70302 1.77154 1.002
498 1 1 14.2306 8.68626 2.8237 1.71314
140 1 1 15.3314 8.45012 2.76018 1.58213
550 1 1 14.9314 8.38168 0.239128 0.676943
2587 1 1 16.2278 8.87737 0.724927 0.952767
622 1 1 16.3794 7.34519 1.67034 0.369576
645 1 1 18.3391 7.54501 2.25103 1.46578
6675 1 1 17.7295 7.87925 3.34102 3.33188
7966 1 1 0.351892 9.7205 2.50638 0.533743
1290 1 1 1.7719 10.7458 1.78131 0.223002
7803 1 1 3.34006 8.84131 1.69404 3.59314
7731 1 1 4.68369 8.93695 1.20375 0.43458
7841 1 1 3.0802 10.4605 2.3615 1.47717
6578 1 1 5.28518 9.39196 2.26911 2.63124
1264 1 1 7.42482 8.8966 37.5424 1.23788
6665 1 1 5.89565 9.50342 1.10254 3.24229
7721 1 1 7.06663 9.58376 2.36868 0.272498
568 1 1 9.22122 8.58087 3.34533 0.928655
610 1 1 8.49276 8.23108 2.19091 2.93947
955 1 1 11.4766 8.89371 2.48049 2.75997
738 1 1 12.483 9.30568 2.69411 3.21612
6686 1 1 13.4892 9.87518 37.4069 2.48363
7634 1 1 13.8105 10.595 3.13785 1.5732
7795 1 1 16.8753 9.62562 1.25864 1.92709
38 1 1 16.1463 10.2676 2.33925 0.546893
423 1 1 17.4395 10.0461 2.38333 0.986311
7432 1 1 16.8085 8.95974 2.55819 1.9339
1360 1 1 18.2233 8.65086 3.55589 0.493019
3472 1 1 0.363021 10.7668 2.2019 5.00295
1677 1 1 0.0479725 8.48808 1.93412 0.378897
663 1 1 17.9421 8.66136 2.03927 0.218584
7851 1 1 1.77749 12.1741 2.43581 0.520643
2638 1 1 1.23203 11.3242 2.99614 1.12763
1917 1 1 2.24221 11.3304 3.09533 1.60283
1318 1 1 2.54015 11.4294 2.0041 3.04732
452 1 1 4.07809 10.1182 2.56953 3.20022
2357 1 1 5.11687 10.1553 0.738018 3.78453
1863 1 1 6.24097 11.9996 0.390389 0.563257
630 1 1 7.45907 11.4165 1.73487 2.01716
1968 1 1 9.9921 10.4666 3.43319 1.35072
1504 1 1 10.1465 9.65036 2.33254 4.45767
2150 1 1 11.3486 9.73359 1.87367 0.0112029
708 1 1 12.5859 10.8814 1.61283 1.40868
201 1 1 14.5267 11.4752 2.31207 5.54338
969 1 1 16.8375 11.3545 2.64683 2.81368
1143 1 1 17.6706 11.2815 1.7592 0.371337
7128 1 1 18.7532 11.739 2.98111 4.45478
300 1 1 1.01071 11.3744 1.88404 3.40801
7729 1 1 0.257177 14.0643 2.41007 3.82669
1727 1 1 2.43805 12.734 3.09156 2.23091
133 1 1 4.36207 11.3907 2.24582 0.35071
1528 1 1 6.02132 13.0001 2.47909 2.80587
945 1 1 5.35582 11.329 2.06727 0.506986
1210 1 1 6.66609 11.7978 2.94226 0.418678
6584 1 1 7.40691 12.5291 2.57118 4.74836
342 1 1 8.61737 12.3312 1.88483 3.15171
1385 1 1 9.98964 10.7085 1.69064 0.498268
433 1 1 11.9072 11.4225 2.49698 8.45666
6939 1 1 10.9045 10.7348 1.2608 0.612374
778 1 1 11.28 11.8963 1.82191 0.501671
6567 1 1 14.2173 11.9226 3.43561 1.34569
7893 1 1 13.0655 11.8084 2.40884 1.02562
596 1 1 15.5193 11.9097 3.11975 2.99794
1189 1 1 15.3391 12.1822 2.02814 0.880721
7089 1 1 16.741 13.6603 2.62086 1.25131
1836 1 1 17.2867 12.3807 1.59173 0.631442
1280 1 1 18.1876 10.7714 2.45192 0.404178
259 1 1 0.30336 13.4514 3.24499 0.0233029
7047 1 1 2.68939 13.6747 0.161388 1.49879
234 1 1 2.68351 12.749 1.81248 2.23427
1448 1 1 1.33452 13.9107 2.32456 2.33509
7961 1 1 4.68706 12.4937 1.825 1.93921
6379 1 1 5.06619 13.667 2.46516 1.05183
299 1 1 4.95904 13.6247 1.09486 1.06881
481 1 1 5.85869 14.1248 2.85623 0.248579
7678 1 1 7.33502 13.9204 3.03584 0.810408
7035 1 1 8.25563 14.5649 3.05347 1.07802
769 1 1 9.74781 11.9297 1.96902 1.7845
7266 1 1 11.4454 12.367 2.84259 0.521957
7856 1 1 11.7712 13.3265 2.25689 3.8175
338 1 1 13.4473 15.1682 1.61254 3.22152
1617 1 1 12.5883 12.906 2.83661 0.365198
1017 1 1 14.4419 13.1286 1.65764 3.00199
629 1 1 15.3704 13.5541 1.62932 1.1505
7999 1 1 16.1738 12.6683 2.49404 1.32753
255 1 1 16.2224 12.994 1.35156 0.127502
2974 1 1 17.7895 14.143 2.85006 0.33859
6833 1 1 18.0804 13.1416 1.40664 1.34365
1042 1 1 1.32447 15.1535 0.736625 5.27606
7772 1 1 0.160641 14.9152 1.51292 0.50811
1340 1 1 0.58961 15.921 2.28524 0.34223
6459 1 1 18.4708 16.6836 2.07339 1.35818
1676 1 1 1.60449 15.5814 1.72622 0.795752
4804 1 1 3.52096 14.4853 2.45301 1.18815
1651 1 1 4.88417 15.6704 2.72686 0.246706
7405 1 1 7.48067 15.0307 2.65909 0.178952
1416 1 1 9.67391 15.3278 1.0208 0.778255
6321 1 1 7.50386 16.4735 2.17178 1.46676
815 1 1 7.43619 14.8589 3.71338 1.89568
2347 1 1 9.97655 13.9489 2.25351 0.838411
2046 1 1 10.0827 15.5408 1.88665 1.13772
7950 1 1 13.38 15.9073 3.27001 0.847036
1077 1 1 12.774 16.0334 2.42459 0.741796
89 1 1 11.7346 15.6665 1.6555 0.666636
7444 1 1 14.5688 13.622 4.37734 1.39892
1269 1 1 13.9386 16.5515 1.30585 0.659645
1110 1 1 14.7278 14.0811 2.00059 0.465303
336 1 1 15.7143 14.9575 1.9107 0.758694
1614 1 1 14.6122 15.2502 1.44121 0.795008
1170 1 1 16.4921 14.3364 1.84322 1.09055
1367 1 1 16.6675 15.6035 1.93615 1.28487
1984 1 1 17.4206 14.8994 1.72746 0.422688
1652 1 1 18.6729 15.6062 3.12612 2.44799
5605 1 1 0.652837 16.9662 2.52668 1.7207
157 1 1 0.558913 16.4069 3.55874 0.994643
549 1 1 1.5067 17.3577 1.07631 1.89474
1128 1 1 3.93185 15.7196 3.35354 0.0540923
3499 1 1 3.45143 15.1682 1.00062 1.39966
6280 1 1 3.4176 15.9502 2.49584 2.12606
687 1 1 6.24693 16.3432 2.68808 0.636808
7303 1 1 5.39108 16.5677 1.51538 1.92905
6688 1 1 6.64047 16.0739 1.74815 0.264317
898 1 1 9.34311 15.4498 2.72079 2.8594
1453 1 1 11.1182 16.5891 1.78545 0.563906
6582 1 1 10.2595 16.8723 2.82522 1.6159
343 1 1 12.4659 16.2224 1.11097 1.93507
990 1 1 12.4583 17.3068 2.4971 1.21225
1139 1 1 13.9748 15.868 2.33249 1.13008
1604 1 1 14.8111 15.7962 4.02479 0.615614
1070 1 1 16.1508 16.513 2.84349 4.00209
7826 1 1 0.38469 17.4877 1.24139 1.67969
7847 1 1 17.8182 17.4594 2.33524 0.400145
7951 1 1 2.7307 18.6519 2.97624 5.60227
18 1 1 0.461531 17.9001 2.32614 0.451971
7454 1 1 2.52738 16.4488 2.82432 0.374759
531 1 1 4.38702 17.4089 2.70536 0.890344
1147 1 1 5.61357 17.7443 1.39939 2.22307
1466 1 1 9.10385 17.3379 1.43237 2.39326
490 1 1 7.28136 0.878371 2.60323 0.822895
32 1 1 7.41154 17.6116 2.01093 0.541628
62 1 1 8.75725 16.2368 3.42706 1.90366
961 1 1 9.82315 17.7153 1.96441 0.430386
7821 1 1 9.39917 17.6337 3.57599 5.22581
55 1 1 11.2635 17.6668 2.24411 0.772368
1616 1 1 11.4428 0.248445 1.84027 2.48268
505 1 1 11.8015 17.5803 1.06456 1.10604
2348 1 1 14.1351 17.4255 2.26411 0.836637
409 1 1 13.432 18.5979 1.21632 3.22877
6824 1 1 16.1277 0.139507 2.91186 1.75517
670 1 1 16.7006 17.3386 2.12373 0.871639
6430 1 1 18.2931 18.2818 1.29155 1.2353
7434 1 1 17.932 0.845261 4.21326 9.62491
910 1 1 0.648708 1.72621 4.86443 2.19874
7947 1 1 1.20926 1.70316 2.5081 1.02995
7451 1 1 1.78802 0.524857 2.19283 1.08001
1902 1 1 3.43643 1.58993 3.43434 0.952964
2365 1 1 5.27295 0.154237 3.16554 2.64337
656 1 1 6.39886 1.40646 3.50232 0.882565
902 1 1 6.07272 1.3255 4.67759 0.894566
7818 1 1 9.61615 0.00663188 4.22631 2.75111
1781 1 1 8.80596 0.18203 3.25047 1.09248
676 1 1 9.17713 16.9387 2.51412 4.29591
2204 1 1 11.5566 1.10412 2.66248 1.87806
2208 1 1 11.4856 0.542861 4.45525 1.33944
164 1 1 11.8137 0.0763804 3.63531 3.55825
147 1 1 12.1321 18.1937 3.08125 3.19693
1473 1 1 13.5031 18.5688 2.28381 1.65361
7669 1 1 15.1187 0.291201 3.21102 2.40391
807 1 1 17.514 1.03509 3.02675 0.735224
7830 1 1 16.4558 1.71639 2.65231 1.12588
881 1 1 17.3191 2.18891 3.82503 1.15552
2134 1 1 18.3421 2.19765 3.65202 1.0383
1909 1 1 0.228189 1.35959 3.63345 1.78252
2066 1 1 1.49122 2.41083 4.71636 0.284145
7188 1 1 1.54508 3.9857 4.91683 0.369132
1654 1 1 2.38 1.67588 2.6812 1.11659
686 1 1 2.39374 4.4709 3.9887 0.589875
96 1 1 2.70847 3.49581 4.38054 4.32897
1322 1 1 4.92252 1.81545 2.39494 1.2141
148 1 1 6.23992 2.90358 4.23224 0.059937
729 1 1 4.40378 2.1363 3.75363 0.866317
6922 1 1 8.57866 1.49412 4.20277 2.08753
1543 1 1 8.55526 0.479309 4.28491 2.17629
7934 1 1 7.67546 1.76839 2.6875 0.242274
544 1 1 9.77268 1.38672 2.45835 2.65911
6942 1 1 8.56555 2.12237 3.21561 1.09425
61 1 1 10.4082 1.1677 3.47085 0.488411
1291 1 1 11.705 1.47094 3.91029 0.88003
822 1 1 14.0359 0.751352 2.94218 1.02084
479 1 1 12.7768 1.86756 4.03139 0.605248
1239 1 1 13.4487 2.90543 3.42857 0.434621
149 1 1 15.7714 2.75464 2.73169 1.37415
772 1 1 15.0459 1.62805 3.26177 1.69873
1826 1 1 14.0348 2.00629 3.6863 1.25768
519 1 1 15.1172 2.86402 3.51153 0.935021
914 1 1 17.3069 3.13721 4.25102 1.24136
1354 1 1 17.6264 1.93791 2.27059 1.48706
965 1 1 18.2024 2.54343 4.65403 0.411584
7887 1 1 18.4334 2.61423 2.42372 0.373652
845 1 1 1.7178 3.51144 4.0072 0.959792
1738 1 1 1.79316 2.58914 3.10309 0.179429
109 1 1 1.84886 5.38997 3.39456 0.444074
692 1 1 3.83446 4.15659 4.59192 0.16143
7366 1 1 5.34536 3.66486 4.47664 3.62014
7215 1 1 5.44124 3.20964 3.19907 0.0830589
7861 1 1 8.84053 3.08517 3.79287 1.16192
125 1 1 7.79124 3.56264 3.35984 0.444776
5799 1 1 10.7948 2.6077 3.10294 1.46242
1302 1 1 10.5001 4.58629 3.41666 0.89097
2191 1 1 12.2758 3.57491 3.14623 2.13723
7322 1 1 11.8684 2.47516 3.9352 0.87676
7532 1 1 12.9022 2.49213 5.03086 1.38502
98 1 1 13.521 3.76054 4.51927 0.77252
1450 1 1 14.2683 3.40039 4.04245 0.458824
7758 1 1 16.3601 2.80057 4.95836 1.10385
588 1 1 15.1925 4.09513 3.83172 1.32325
2793 1 1 16.1946 4.65166 2.91135 1.89572
1336 1 1 16.1503 3.43225 3.59127 0.100659
7595 1 1 18.3723 3.23705 3.18176 2.94156
7202 1 1 0.445529 4.04889 3.30896 0.0726046
115 1 1 18.6281 3.66073 4.0711 0.665143
774 1 1 18.6656 4.70577 4.25548 0.530397
7791 1 1 0.466402 5.21236 2.40478 0.63157
2033 1 1 2.01143 5.88612 4.30215 1.86324
2044 1 1 3.24432 5.11215 3.26559 2.63941
799 1 1 2.94245 5.17397 4.73309 1.26089
489 1 1 4.10699 4.57753 3.00511 1.56166
188 1 1 7.2403 5.61257 3.50774 1.1752
580 1 1 7.02684 4.10724 3.71691 2.60279
7251 1 1 6.84144 4.54816 5.00506 0.428534
1850 1 1 7.90664 4.8201 3.48652 1.18859
6566 1 1 8.55134 4.03071 3.74941 2.14339
5747 1 1 8.44598 4.25086 2.54681 0.190303
6996 1 1 9.5819 3.67683 3.20264 0.52848
1025 1 1 9.9891 5.44632 4.515 0.683095
1585 1 1 11.2071 5.12519 3.96048 1.40136
6470 1 1 13.2241 5.15664 3.89745 0.803572
7782 1 1 13.4005 6.55382 4.4337 1.58434
2139 1 1 14.5673 4.55098 3.05352 0.727797
1422 1 1 14.6284 5.40055 4.42756 0.854165
1213 1 1 15.5382 5.51895 4.85689 1.63284
7579 1 1 14.4648 6.72343 3.59286 1.67843
6719 1 1 16.925 5.3619 3.08266 2.00476
7659 1 1 18.1703 5.66874 4.31205 0.44217
383 1 1 18.1652 3.96275 2.4208 1.1659
72 1 1 1.57562 6.41677 2.55919 4.38373
913 1 1 18.2719 6.78006 3.19103 0.647224
608 1 1 2.43708 5.9074 1.88175 2.94509
6159 1 1 1.562 6.97529 4.32403 0.931862
509 1 1 3.75967 5.65114 2.60694 1.20576
2917 1 1 2.36484 7.06617 2.97537 2.08384
7601 1 1 2.81373 6.09115 3.0318 1.33831
3 1 1 4.82956 7.4495 3.74464 0.732875
1002 1 1 3.80107 5.58841 4.35782 0.116334
217 1 1 5.63606 7.1947 4.38649 4.56823
6477 1 1 6.7425 7.2327 3.37633 0.34714
985 1 1 5.65041 6.35731 3.44385 1.08441
7387 1 1 8.71361 5.86225 4.32468 0.736439
7683 1 1 7.83723 6.58168 3.03471 0.205744
7685 1 1 7.47261 5.37594 4.55916 2.28688
2855 1 1 9.56033 7.32966 3.90939 0.228506
6619 1 1 11.9418 7.86932 2.90309 3.45379
7850 1 1 10.6898 6.24301 4.58684 4.1762
7725 1 1 12.2213 7.79024 3.98695 8.52965
1203 1 1 15.2268 6.60415 2.86214 2.30138
102 1 1 17.755 6.58713 4.16919 2.1768
538 1 1 0.765548 7.16797 2.5955 1.16454
1757 1 1 0.0518703 7.65139 3.23516 0.429459
802 1 1 1.62768 8.61951 3.64686 1.40076
926 1 1 1.44382 7.48622 3.46982 2.18189
1275 1 1 2.39702 7.51359 3.90201 0.657875
7326 1 1 4.2911 8.61118 3.81579 0.321407
7242 1 1 3.51323 7.8495 4.05969 0.840132
153 1 1 5.39253 8.27951 4.0762 0.509313
1547 1 1 5.85926 9.29146 3.53707 2.38301
6971 1 1 5.48641 7.80797 3.12917 0.243981
1475 1 1 9.01857 7.09478 2.81247 1.45834
408 1 1 7.26457 8.27478 3.3053 2.07586
7335 1 1 9.84446 7.97581 2.77329 2.06712
1809 1 1 10.9115 8.36522 3.59108 0.845436
557 1 1 13.3885 7.92009 4.76586 1.32524
2798 1 1 16.0872 7.26083 3.7733 1.60679
2151 1 1 16.7153 8.02427 3.39366 0.569272
1079 1 1 1.03652 9.54155 3.46502 1.4758
1728 1 1 1.8503 10.337 3.45656 2.36969
634 1 1 2.52208 10.8777 4.18737 1.64906
1005 1 1 2.61287 9.24463 3.47561 1.30417
715 1 1 4.82475 9.77863 3.24784 2.79234
440 1 1 4.91594 8.66062 3.0207 2.00632
345 1 1 6.90651 9.69075 3.34301 3.72062
154 1 1 7.92387 9.31754 3.41795 0.848478
1194 1 1 10.329 8.19699 4.53795 2.14181
1295 1 1 10.0357 9.49233 3.55946 3.18274
825 1 1 11.5126 10.0699 4.79636 0.894131
1833 1 1 11.5124 10.114 3.61118 0.846007
572 1 1 12.5249 9.88337 3.72386 1.38842
7739 1 1 15.4561 10.8851 3.09526 2.83018
1802 1 1 13.4705 8.78176 2.22624 1.38336
7085 1 1 14.8203 9.7756 2.69737 0.979329
790 1 1 15.3074 9.17387 3.66823 1.21325
667 1 1 16.2799 9.34779 3.48984 0.842095
1709 1 1 17.4663 9.34197 3.82702 2.73062
3565 1 1 17.412 10.3896 4.67833 0.968754
1287 1 1 0.805349 11.4016 4.03562 1.24535
1349 1 1 3.45951 9.95228 3.42612 2.68618
6563 1 1 3.68306 12.3916 2.04727 4.6161
7130 1 1 2.04055 11.7323 6.38118 0.962427
6196 1 1 3.93744 10.1564 4.37467 1.36342
146 1 1 5.44912 10.136 4.24352 1.13632
840 1 1 4.73162 11.0131 3.18361 1.02457
5697 1 1 5.68041 10.4274 1.63506 0.433304
529 1 1 6.17639 8.54832 2.8504 0.0521894
95 1 1 7.08136 10.6396 2.60485 1.07188
7459 1 1 5.93698 10.4138 3.30354 1.55341
823 1 1 8.7652 9.19591 2.41251 0.624047
487 1 1 8.06113 11.0369 3.27555 1.01715
7139 1 1 7.93687 10.3205 2.202 1.35861
1940 1 1 10.3594 9.92501 4.84537 0.83292
1487 1 1 8.84015 10.4582 3.86877 0.213722
416 1 1 11.937 8.99851 3.45183 6.38247
1199 1 1 12.2138 10.3437 2.86647 1.7785
7156 1 1 14.2968 11.9611 4.84295 0.245056
7004 1 1 16.077 10.4143 3.6521 2.09483
1426 1 1 16.0896 9.89141 4.66673 2.64111
1000 1 1 0.680756 10.5261 3.33252 0.21792
2621 1 1 18.6354 9.82235 3.91837 0.264203
6762 1 1 0.829034 12.4792 2.66392 0.906602
2329 1 1 2.36794 11.9299 5.27761 3.56135
7717 1 1 3.71256 12.6283 4.39058 0.232447
7755 1 1 3.67895 13.0416 3.42373 2.12464
6842 1 1 4.28406 11.988 3.62079 0.283163
699 1 1 5.48535 12.6003 4.05856 1.28437
2732 1 1 6.30583 12.7227 3.38357 0.904441
7704 1 1 8.00252 12.2608 3.36075 1.42716
1920 1 1 11.0476 12.3245 4.17096 4.11156
640 1 1 11.7347 11.2894 3.76597 2.63324
7531 1 1 12.1851 12.0073 4.51918 0.47403
221 1 1 10.7736 10.8635 2.65895 0.954568
1100 1 1 13.8239 13.4705 3.59836 0.857031
7798 1 1 13.1209 11.2528 3.72676 2.35635
7040 1 1 15.0402 13.1758 2.66288 0.477974
1493 1 1 16.1977 11.5475 4.07626 1.87195
1184 1 1 17.603 11.5891 3.90436 0.222929
888 1 1 16.2182 13.1106 3.57481 3.43119
1024 1 1 18.7887 10.9572 3.79661 1.50025
986 1 1 18.4339 11.9962 4.65318 0.692438
2277 1 1 0.697026 13.5664 4.36161 0.825036
204 1 1 0.182782 15.0384 4.08406 2.4393
1233 1 1 18.2325 13.1203 3.71756 1.17564
203 1 1 1.6596 13.0481 3.9364 0.536637
7621 1 1 4.54935 14.1948 3.26721 0.706173
178 1 1 2.78571 13.7669 3.12019 0.108341
7811 1 1 4.51164 12.836 2.84637 0.047701
584 1 1 4.70659 13.449 4.24593 0.484271
245 1 1 6.24139 15.3533 4.26765 0.490841
1505 1 1 6.44234 12.7392 4.47876 1.09379
1853 1 1 6.56638 13.7679 4.12824 2.96054
7489 1 1 8.30005 14.0234 3.9765 0.00574551
906 1 1 8.91236 12.7012 3.60281 3.63528
2032 1 1 10.4936 13.3986 3.83038 0.0983677
2126 1 1 11.5727 14.0088 3.05359 1.79229
6946 1 1 13.7532 12.719 4.34584 1.87548