ITEM: TIMESTEP
4700
ITEM: NUMBER OF ATOMS
8000
ITEM: BOX BOUNDS pp pp pp
0.0000000000000000e+00 1.8820720577620570e+01
0.0000000000000000e+00 1.8820720577620570e+01
0.0000000000000000e+00 3.7641441155241139e+01
ITEM: ATOMS id mass type x y z v_temp
7088 1 1 18.4248 16.2904 36.3524 3.19807
677 1 1 18.7656 -0.028683 2.63629 1.68407
6814 1 1 4.68443 0.794522 2.42537 0.346207
2103 1 1 5.55661 17.5048 3.76005 5.00445
1134 1 1 8.19145 2.05854 2.25325 1.22332
6551 1 1 9.43177 1.50712 0.453252 1.44785
1588 1 1 12.5348 4.41497 2.28889 0.291764
6121 1 1 9.66098 17.2622 0.102328 0.768728
94 1 1 11.4206 16.4061 0.194396 0.105184
1044 1 1 12.2556 0.528784 0.40078 2.22239
7796 1 1 11.9329 17.6767 0.713664 2.21979
7301 1 1 14.1068 1.3516 1.58402 0.209391
7423 1 1 15.4929 18.2715 2.01781 0.68919
7960 1 1 16.639 0.346057 3.91702 0.127197
1479 1 1 15.4979 0.314268 37.517 3.19782
2221 1 1 17.2327 1.44591 1.16677 2.62566
5355 1 1 0.580356 5.85275 1.70881 2.45429
859 1 1 2.81034 0.973235 0.142578 2.09133
776 1 1 2.32978 16.0852 1.03859 2.84116
6494 1 1 5.51178 4.53389 0.787531 1.55872
7412 1 1 3.78558 2.29381 0.577443 0.413027
2824 1 1 5.27162 0.42256 0.401414 2.62099
7604 1 1 7.02804 1.84628 0.314584 1.02266
7653 1 1 4.08494 2.34454 37.1913 1.24649
1266 1 1 5.44234 1.40927 2.75171 0.925382
175 1 1 6.34949 0.566677 1.97011 1.01922
7032 1 1 9.81103 3.9451 37.1673 2.53467
437 1 1 7.95456 0.538726 0.57203 2.65289
1563 1 1 12.1252 2.01907 2.11999 0.344626
7431 1 1 11.9461 0.876191 3.0773 2.61073
1806 1 1 12.616 2.82749 37.463 0.652714
350 1 1 13.7104 2.77565 36.2853 0.144129
828 1 1 14.0336 3.70433 35.8145 0.164265
636 1 1 13.5477 1.57217 3.12811 2.76803
1183 1 1 16.5623 4.48261 37.4855 0.139951
877 1 1 15.4952 0.59961 1.94714 1.39842
6845 1 1 16.176 1.84553 1.63633 3.12714
2202 1 1 0.783402 1.37124 0.871703 1.47545
791 1 1 3.08242 1.96682 4.61353 1.07112
6006 1 1 5.68813 1.36613 0.454023 1.91007
314 1 1 2.45799 6.80471 36.5478 0.402421
406 1 1 4.2292 2.74859 36.2093 1.81441
367 1 1 3.27859 1.04556 35.1857 7.14814
6777 1 1 5.07518 3.57433 0.0522656 1.86187
324 1 1 4.07824 2.72915 1.51479 0.383059
454 1 1 10.8024 3.64669 36.6627 3.32739
1085 1 1 7.25322 2.31881 1.18432 1.73482
5462 1 1 6.22395 4.53354 1.94967 0.910612
2244 1 1 11.4298 18.5745 37.5449 1.92261
285 1 1 9.89865 2.40203 0.296764 1.22191
7115 1 1 11.3465 5.48558 36.1129 0.906122
7155 1 1 13.3187 4.9501 0.15822 0.797424
430 1 1 14.1626 2.13795 0.329496 2.89019
7392 1 1 15.6479 2.95927 36.2679 3.82922
7440 1 1 -0.00257221 5.18985 3.00761 0.460253
7660 1 1 2.47436 6.52062 1.45067 1.23263
190 1 1 2.56036 3.62073 34.9794 2.88527
7346 1 1 1.47719 5.56224 0.582224 0.380577
1562 1 1 2.44224 6.28654 -0.00483771 0.69747
733 1 1 4.17482 4.44733 0.285568 0.878097
7260 1 1 2.79444 5.16831 37.0243 0.485292
7564 1 1 10.5629 3.35137 0.0556001 1.05009
7450 1 1 9.57665 5.08718 2.50642 0.839807
973 1 1 10.7262 5.09968 5.14337 3.7921
5741 1 1 10.1702 4.34517 0.616869 3.17617
6949 1 1 13.4579 3.67543 2.48925 1.16427
6997 1 1 14.5292 2.76554 1.45421 1.25693
7544 1 1 17.4269 5.74552 34.3742 1.59771
7273 1 1 0.730135 5.08329 37.12 3.23613
552 1 1 16.3253 4.76386 2.5731 1.48256
137 1 1 18.1734 4.44998 1.10355 1.86384
1020 1 1 1.82696 4.60405 37.0021 0.809499
7594 1 1 18.162 5.72121 2.54991 4.00631
1037 1 1 1.76919 8.13681 2.32295 3.78101
7965 1 1 0.645532 6.15412 0.326668 2.37694
1714 1 1 1.43671 6.0679 37.0183 8.62705
762 1 1 1.90238 9.02476 0.612397 4.24765
135 1 1 5.31241 4.77824 37.4239 0.777192
7703 1 1 5.7725 5.84561 0.0292971 0.822416
6441 1 1 9.08179 7.79786 4.01363 1.78034
1296 1 1 9.28853 4.9837 36.6159 1.33847
187 1 1 8.95324 5.81874 1.13775 2.9708
997 1 1 7.98736 6.95309 1.95793 2.09714
5812 1 1 11.3775 5.71322 1.85931 2.45136
1784 1 1 12.4958 5.05316 36.9971 3.13587
2197 1 1 14.2433 8.31872 1.75793 2.06329
469 1 1 14.7068 7.30573 0.256308 0.365927
6476 1 1 12.4707 5.54627 1.24604 1.06897
7318 1 1 18.5053 5.77349 1.03955 0.765546
6561 1 1 15.8843 5.07245 1.224 0.487509
7844 1 1 18.3028 5.31018 36.7393 2.69021
205 1 1 2.51825 9.10234 2.23356 2.03548
7570 1 1 0.855452 7.83266 37.0413 0.677069
357 1 1 3.33882 7.81662 1.94423 0.131645
750 1 1 3.09512 8.64905 3.03366 1.27627
922 1 1 6.54158 8.64654 1.16238 2.21884
174 1 1 5.81803 6.66095 4.39007 2.42617
7738 1 1 7.09897 8.77705 0.264463 1.68321
1681 1 1 9.26777 9.48962 37.5574 4.38387
1001 1 1 8.76971 8.8867 0.834619 0.604209
7573 1 1 8.88338 7.47355 0.566474 1.78544
6907 1 1 10.1875 6.98106 2.44366 4.22676
7913 1 1 10.2701 8.07375 3.88844 4.35085
7548 1 1 12.9727 7.69431 1.85495 1.8039
79 1 1 15.7398 7.15203 36.929 0.274686
7411 1 1 13.1291 6.55345 36.3509 7.83684
669 1 1 12.7802 5.52119 3.19433 1.30447
6959 1 1 14.6465 8.37321 36.9393 0.290574
7424 1 1 16.4845 7.82815 36.4045 2.10737
1401 1 1 17.0467 5.09894 1.14173 2.08355
875 1 1 16.5565 6.60195 37.2398 1.09861
6828 1 1 0.69571 6.82796 1.61729 1.07011
1596 1 1 1.10271 8.90108 3.07494 0.709052
6343 1 1 2.55925 8.42473 35.6441 1.99717
6767 1 1 3.79837 9.15957 1.95624 1.28777
7846 1 1 2.48543 11.1001 35.9698 1.04264
86 1 1 5.05795 8.3251 35.8656 0.564284
7144 1 1 4.93763 6.66343 0.112337 6.38107
7513 1 1 5.36809 7.45272 1.13444 1.14809
6380 1 1 7.44381 9.72935 36.262 4.12382
6235 1 1 7.26547 8.64486 3.21267 1.42185
7002 1 1 8.68911 9.60194 35.4336 1.46023
7643 1 1 8.43578 11.2491 0.853701 0.681169
7019 1 1 9.90485 9.38752 0.85614 0.209803
7943 1 1 9.92547 6.48663 0.524126 1.1536
543 1 1 11.6833 5.35641 0.3845 0.772278
5838 1 1 15.8118 10.8381 36.7729 1.29906
1120 1 1 13.2473 9.44177 37.574 1.39762
600 1 1 15.7919 9.08707 36.0686 1.99527
2072 1 1 17.6855 10.4792 0.759352 0.641662
5857 1 1 17.0934 7.0904 0.461009 0.747894
736 1 1 17.487 8.005 36.9691 0.448739
7397 1 1 1.0501 9.56299 0.211799 2.62048
7800 1 1 17.3282 6.06893 0.122334 0.947718
7581 1 1 0.825389 9.02256 1.30908 0.76644
6599 1 1 2.02724 9.98355 2.19465 4.18805
7567 1 1 1.67889 12.3039 37.019 5.10085
439 1 1 4.98718 9.80607 2.06752 2.53527
1172 1 1 5.35924 11.7694 36.8095 2.52794
191 1 1 5.33029 11.6746 0.706624 0.062939
7065 1 1 7.25422 10.2647 0.343904 0.120332
236 1 1 5.26843 8.90926 34.9598 0.390004
6933 1 1 5.15821 10.5093 36.3389 2.45548
238 1 1 7.05112 11.0286 2.27571 1.04067
574 1 1 8.60733 9.82408 36.7174 0.814513
6631 1 1 10.1519 12.8296 0.719537 1.58688
7949 1 1 8.19384 10.6933 37.4762 2.75508
3406 1 1 9.39081 10.8715 1.23479 2.24888
7834 1 1 13.7306 12.8955 1.24772 1.0108
1584 1 1 12.7674 10.5539 37.1637 1.74565
932 1 1 11.0653 9.97842 0.514787 0.109451
627 1 1 15.9989 8.73804 37.3723 1.5031
1438 1 1 17.861 7.97349 0.87989 0.280975
6752 1 1 17.4035 9.03943 0.480969 0.492277
991 1 1 1.81959 11.9342 1.30224 2.2947
7555 1 1 18.7025 9.34635 1.70731 2.2064
1793 1 1 17.2294 14.2585 37.2514 0.564698
962 1 1 2.8328 11.4539 1.47901 1.90067
7060 1 1 2.51629 11.2268 3.47468 3.33798
340 1 1 6.99211 12.5779 0.0468682 1.3904
662 1 1 4.30386 13.3918 1.5174 0.576976
704 1 1 6.9672 14.5368 0.320838 1.36053
7351 1 1 8.17398 12.5718 0.471594 1.14394
2234 1 1 8.16593 13.1979 36.0841 1.37386
6693 1 1 11.2021 13.5243 0.484855 5.10658
7749 1 1 9.19573 12.3215 -0.0337611 1.45738
2320 1 1 9.20356 13.0991 0.827845 0.496114
6723 1 1 12.1194 10.7998 0.476312 0.468502
7497 1 1 13.6226 10.9281 36.815 0.242475
1997 1 1 18.5009 11.7541 0.146489 0.403362
818 1 1 17.7269 11.3977 2.58654 2.82295
1399 1 1 18.7624 8.91395 0.802918 2.2053
924 1 1 17.7974 16.8406 0.998159 1.30155
6411 1 1 18.4431 14.6779 2.24316 1.18188
6464 1 1 1.35875 13.027 0.424983 0.297083
7248 1 1 2.88362 14.0134 0.213392 3.03419
7404 1 1 3.01865 15.1002 3.39592 0.446554
7836 1 1 2.47198 13.6434 1.31199 3.44103
7457 1 1 5.75232 13.1892 37.5214 0.766342
7174 1 1 5.37183 16.1848 0.213531 5.5556
163 1 1 7.03605 15.2802 37.1917 4.2078
970 1 1 6.76492 16.8386 37.4035 0.241101
678 1 1 11.5169 14.4731 37.3489 1.09115
64 1 1 9.88371 14.886 0.929752 1.33774
6399 1 1 11.3183 15.116 1.82836 0.7495
386 1 1 9.32831 13.3508 36.6547 0.133916
6873 1 1 11.4612 13.8294 1.53964 2.8047
830 1 1 11.2904 11.87 2.42142 0.93363
2106 1 1 11.9747 14.3451 0.838138 0.579935
375 1 1 14.1174 12.9225 36.8886 1.54822
209 1 1 15.0763 12.4163 34.0476 0.790409
5900 1 1 12.6163 13.5856 1.39411 0.505048
1749 1 1 14.8585 13.7589 0.999707 4.93337
711 1 1 16.748 12.8181 37.3196 0.43463
7138 1 1 14.1899 12.837 35.8273 1.02522
346 1 1 0.456699 11.5153 1.17193 1.39307
918 1 1 0.149881 13.5424 0.433331 3.84478
1136 1 1 0.692494 16.3815 36.6678 0.430589
6637 1 1 0.814675 15.6879 0.875474 1.08871
7957 1 1 5.50556 11.9365 3.11457 1.69349
642 1 1 5.45238 17.3789 0.404649 0.648581
639 1 1 5.68245 13.3931 2.24303 1.20085
569 1 1 6.2841 14.4198 36.7188 0.819345
6673 1 1 8.1261 14.9087 36.1033 1.54287
1729 1 1 8.08055 14.5589 1.74352 1.0174
504 1 1 6.95352 14.9099 2.05168 0.317765
7736 1 1 10.5418 13.2748 1.6175 0.370677
239 1 1 12.2611 12.297 0.431626 0.261656
472 1 1 12.7913 14.6714 3.16861 2.75229
2373 1 1 13.4262 12.1857 0.219857 0.591541
1186 1 1 14.022 18.7666 37.1901 1.44786
7011 1 1 17.8511 17.9816 0.201207 1.68012
7338 1 1 15.777 16.7064 1.13208 0.279135
296 1 1 16.4183 16.7541 0.0370149 1.27768
7977 1 1 0.767876 17.5961 36.4036 0.567859
7863 1 1 0.992685 17.2276 1.91855 1.53536
668 1 1 0.65301 16.3769 2.21357 0.285988
1634 1 1 1.2991 18.0975 1.66174 0.668314
7097 1 1 1.74995 16.4853 35.8712 1.42141
332 1 1 4.31165 16.0513 1.05755 0.0885478
7300 1 1 4.21776 18.511 37.4329 3.72796
7297 1 1 7.72178 15.0621 0.822427 1.75604
287 1 1 6.44403 16.6167 1.14065 0.497877
414 1 1 7.85397 16.8638 36.3032 0.206503
5509 1 1 9.60155 18.1089 35.7822 0.997517
1196 1 1 11.3307 15.6311 35.5426 0.865768
6228 1 1 10.7844 17.5184 36.31 0.676575
7568 1 1 15.0557 18.5077 36.3743 1.0042
809 1 1 12.9169 16.5092 37.4497 1.14068
653 1 1 13.0605 18.5761 0.529035 4.11146
6982 1 1 14.8086 17.9891 0.135783 3.27129
2506 1 1 16.9733 18.4672 0.671021 1.11565
579 1 1 18.1953 14.872 0.415356 0.325429
273 1 1 14.4293 16.0495 1.09557 1.97354
1216 1 1 18.0568 16.457 2.54338 0.0564088
328 1 1 1.15991 17.1393 37.3341 0.293174
647 1 1 1.78151 0.560693 2.33242 1.09915
1469 1 1 4.14645 15.0946 1.48748 1.38744
829 1 1 2.0586 0.688517 0.947523 1.43661
1573 1 1 5.9363 2.47896 0.880819 3.3565
758 1 1 3.81628 17.1081 1.36803 0.342399
6079 1 1 5.71519 18.5637 1.53409 3.86462
7613 1 1 5.7686 16.8502 2.4968 2.03851
6855 1 1 7.10646 1.56274 2.74368 1.62447
895 1 1 6.11641 18.3783 0.498827 1.41737
7452 1 1 10.8823 17.4037 1.1015 0.597345
7753 1 1 9.44757 18.7834 1.58443 3.48879
281 1 1 13.7261 18.409 2.43857 0.193814
500 1 1 13.382 18.6244 1.49237 0.324738
1413 1 1 14.2909 18.7137 0.640605 1.36218
7529 1 1 18.4567 1.04827 2.69836 0.0394549
1999 1 1 16.8764 16.3592 35.5819 3.78197
1713 1 1 2.22945 17.8743 2.47001 0.193674
643 1 1 2.98366 0.697532 2.10804 0.227621
1509 1 1 1.05599 17.7151 0.658095 4.5673
2026 1 1 7.54695 15.7718 1.50976 1.12114
1365 1 1 1.51729 2.10346 1.57773 0.378261
104 1 1 3.36665 1.96008 2.70197 0.0263007
1750 1 1 6.73076 3.70353 3.02387 0.261604
1348 1 1 3.04389 2.71235 3.7511 0.604319
6581 1 1 8.07647 1.66343 1.09945 0.748879
6040 1 1 9.19569 2.77732 2.66816 1.21553
1140 1 1 12.849 0.800923 1.9398 0.280015
7028 1 1 12.901 2.75833 3.18346 0.50522
7340 1 1 13.5573 18.5923 3.55433 2.16746
7185 1 1 14.319 18.614 1.60217 1.50122
1339 1 1 15.5266 18.6258 3.92888 0.379436
1973 1 1 17.0433 0.480946 1.8826 1.2746
1041 1 1 14.6523 0.741365 37.048 0.0691755
1511 1 1 18.6095 2.00726 1.86881 3.02739
1607 1 1 0.573383 2.59911 2.06059 1.10423
3242 1 1 1.0985 1.11542 4.52669 0.600839
508 1 1 17.3418 1.77133 37.0737 0.0614898
7679 1 1 17.725 18.5773 1.24473 2.40456
1198 1 1 1.33819 1.13575 3.57384 0.766933
7718 1 1 0.506385 4.04217 3.57848 1.52218
7773 1 1 2.9235 2.64632 1.89665 0.407386
547 1 1 5.15764 1.7497 1.32447 1.42205
7751 1 1 9.25959 0.665451 3.07597 1.49304
6866 1 1 7.0283 3.00976 3.91012 0.0504168
108 1 1 9.54981 2.85264 4.70325 1.25141
6363 1 1 8.47977 3.35003 1.44875 1.48319
1661 1 1 10.5572 1.17032 2.46449 2.95441
6659 1 1 11.8748 3.45439 3.67751 0.686155
6241 1 1 9.6077 4.70356 3.80005 2.11415
1007 1 1 13.1297 1.39455 1.04304 1.02868
3932 1 1 14.9615 5.10146 1.80369 0.496585
1928 1 1 16.2767 1.71302 3.223 2.2819
3225 1 1 14.1636 0.716575 4.26367 0.243495
1591 1 1 15.425 2.43954 4.01239 0.696473
1672 1 1 0.0648414 18.4125 0.789639 2.22699
31 1 1 1.78067 3.10149 1.78732 0.338982
2558 1 1 18.546 4.65926 4.04793 2.30061
1045 1 1 2.80642 4.26079 37.5058 0.130271
6026 1 1 4.11588 4.14274 5.84441 3.29787
7785 1 1 3.5835 5.02618 2.85624 1.55543
6083 1 1 6.06423 3.63082 1.00223 2.35933
6605 1 1 4.86301 2.69414 2.9129 1.80492
7625 1 1 7.1579 4.77417 3.19253 0.590346
593 1 1 7.73814 3.0764 2.29056 2.77475
1381 1 1 9.33024 2.96537 37.303 0.27422
354 1 1 9.46203 3.6775 0.726242 2.76642
7094 1 1 11.8353 6.1829 3.71525 1.05051
7719 1 1 8.60486 1.04336 2.0054 0.934129
726 1 1 14.2323 2.64199 2.96417 3.92089
1270 1 1 16.6957 2.53902 3.64522 0.484682
3071 1 1 15.4485 3.84491 2.58725 0.322923
874 1 1 0.916445 5.8339 3.01533 1.11166
7697 1 1 1.72974 3.54636 2.88115 2.96613
6423 1 1 0.145426 3.67394 1.96441 0.115294
982 1 1 1.43643 4.57003 3.21512 2.3575
602 1 1 3.575 6.9043 1.61825 0.495678
1310 1 1 2.59716 5.75847 2.64344 2.00004
1717 1 1 2.76738 3.82699 1.43479 1.51002
1279 1 1 4.81173 2.5815 0.312805 0.132906
7879 1 1 3.11239 6.05201 3.79583 1.45811
7612 1 1 6.23658 4.34551 3.75024 0.584562
1273 1 1 6.08114 5.0056 2.91014 0.570786
6424 1 1 5.25757 4.4976 2.2229 0.211477
1237 1 1 9.89562 4.38203 1.78819 0.611223
604 1 1 10.8499 4.70572 2.03693 1.53271
7466 1 1 12.7105 4.08245 3.3722 0.527616
742 1 1 15.4676 6.81384 2.93812 0.0498404
7468 1 1 16.0674 3.91375 1.48558 0.924263
126 1 1 16.08 3.11982 0.316636 0.266049
1539 1 1 15.31 4.67687 0.511314 0.297587
1648 1 1 15.7948 5.80305 3.61949 2.24172
7633 1 1 16.9156 5.84105 4.34766 0.178039
6640 1 1 0.0388383 5.62299 4.06611 0.796742
1715 1 1 1.51094 6.37537 1.27775 0.850523
966 1 1 0.0711151 7.35398 2.58293 0.25665
7944 1 1 1.71335 7.31089 1.57212 2.56598
6987 1 1 3.17987 6.45844 0.675607 2.37125
2559 1 1 5.0333 8.44829 3.85093 2.40535
6815 1 1 3.81366 6.25513 37.317 0.0877257
615 1 1 4.61102 6.86829 2.8028 0.647547
2608 1 1 6.92504 5.90686 3.03857 0.157292
7472 1 1 6.91268 5.20937 2.25913 1.51141
7482 1 1 10.559 5.04987 3.21732 2.61644
1224 1 1 12.9131 6.06119 4.24613 0.732385
1790 1 1 13.4396 4.77007 4.06403 0.713666
277 1 1 9.28354 3.69218 2.13114 0.371741
6497 1 1 7.16854 7.306 1.32244 1.81917
6044 1 1 14.5014 4.06475 2.71681 1.85194
1537 1 1 14.5842 6.25543 2.64807 1.18701
486 1 1 10.3186 6.30214 1.71815 1.07775
374 1 1 14.0672 4.0682 1.28092 0.360231
1377 1 1 14.1599 6.3827 1.75136 0.532417
223 1 1 13.0714 6.5189 1.5957 3.5741
651 1 1 14.9672 7.06052 1.79734 1.99032
235 1 1 16.4148 6.03292 1.55591 0.192452
573 1 1 17.9643 7.5276 3.25305 2.22978
7358 1 1 2.26275 7.23073 3.23827 0.33962
5817 1 1 3.98867 9.62793 3.99748 0.693804
158 1 1 6.93125 8.92488 4.19995 0.914755
842 1 1 5.23476 7.493 4.1648 2.8501
1751 1 1 7.69001 7.68375 2.99222 2.17651
6253 1 1 9.8672 7.09737 3.33518 0.907297
8000 1 1 6.59201 3.37106 1.85039 1.75378
1069 1 1 6.98624 9.65867 1.16043 0.965475
1217 1 1 8.44628 10.0026 1.01975 0.435388
2054 1 1 11.4808 8.62152 1.9856 0.616238
7644 1 1 8.65556 4.31479 3.08562 2.37673
21 1 1 11.0207 7.71944 2.28082 2.56325
675 1 1 13.6637 6.25079 3.63017 0.607633
1193 1 1 15.5503 8.5814 1.94425 1.41377
498 1 1 14.7758 8.94464 3.23924 4.45765
140 1 1 14.3481 9.31671 0.907258 4.98698
550 1 1 16.4947 8.17704 1.15157 0.857236
2587 1 1 17.1686 9.20937 36.9432 2.08389
622 1 1 15.4007 7.95271 2.7403 0.719542
645 1 1 18.595 7.37282 0.0422671 0.859649
6675 1 1 17.1582 7.61418 1.76699 7.71965
7966 1 1 18.3733 9.58205 3.13861 0.666111
1290 1 1 3.24712 10.1064 2.22511 0.873349
7803 1 1 4.90793 9.00064 1.64516 0.429864
7731 1 1 5.84355 8.95186 2.30167 1.67123
7841 1 1 4.6576 12.1198 1.8157 1.81426
6578 1 1 6.46239 9.84698 2.02705 1.57624
1264 1 1 8.01141 9.25064 37.4822 0.468257
6665 1 1 4.13507 9.74918 2.83593 0.572211
7721 1 1 7.7685 10.2102 1.93328 1.23011
568 1 1 9.38742 9.1102 2.27547 4.38692
610 1 1 8.06115 7.60466 4.0366 0.289216
955 1 1 12.9575 8.54033 4.14026 0.327213
738 1 1 13.1667 9.52829 4.05266 0.253657
6686 1 1 14.4091 10.1802 0.165373 1.61603
7634 1 1 10.8955 10.7577 3.41236 0.333753
7795 1 1 18.5106 11.9024 36.5751 2.7395
38 1 1 16.0523 10.6788 2.22629 0.847449
423 1 1 16.3723 8.94553 2.4329 4.93105
7432 1 1 15.4189 9.5415 2.21847 0.736025
1360 1 1 0.0917154 8.33189 3.03922 2.60649
3472 1 1 0.649918 12.2094 3.00253 1.3153
1677 1 1 0.118795 8.27237 1.72454 0.810323
663 1 1 17.352 9.20573 1.40051 1.45647
7851 1 1 1.87549 13.265 2.533 1.02385
2638 1 1 1.86735 12.2032 3.37409 0.705509
1917 1 1 3.84889 12.4865 5.259 3.32944
1318 1 1 3.42725 13.8291 2.87948 0.686166
452 1 1 4.09333 11.3713 4.82532 0.876283
2357 1 1 6.2629 6.97604 1.28176 0.570655
1863 1 1 7.75041 13.8128 37.4996 1.63861
630 1 1 8.15514 12.4073 1.4378 0.640849
1968 1 1 8.20594 10.9258 2.63726 1.61284
1504 1 1 11.9782 8.86007 3.03631 1.05059
2150 1 1 13.4242 6.94571 2.407 1.327
708 1 1 16.6446 9.82391 1.03859 0.322696
201 1 1 12.7359 10.0963 2.93022 4.63804
969 1 1 17.3211 10.5796 3.27285 0.111321
1143 1 1 17.7014 11.4905 0.853539 0.347086
7128 1 1 2.04193 12.8878 4.29705 1.11015
300 1 1 2.45816 10.2781 37.3867 1.56239
7729 1 1 0.523195 15.3269 2.85578 0.996398
1727 1 1 5.46233 13.4038 3.31528 0.772017
133 1 1 5.11025 10.9332 2.00288 0.510324
1528 1 1 8.05081 11.9559 2.8016 4.38555
945 1 1 6.06889 11.4338 1.98494 0.156707
1210 1 1 7.48146 11.0852 1.34481 1.04458
6584 1 1 8.55744 12.1608 3.94183 0.716083
342 1 1 8.55315 14.2308 0.630884 2.48837
1385 1 1 11.3057 10.9218 1.83525 0.467384
433 1 1 11.5036 11.6391 0.440912 0.937651
6939 1 1 10.821 12.095 1.56537 3.04139
778 1 1 10.0044 9.76374 1.9423 3.3839
6567 1 1 14.9572 11.4536 4.16235 0.230951
7893 1 1 13.0279 11.3572 2.28863 0.688271
596 1 1 15.7073 11.6163 3.33103 2.62851
1189 1 1 16.9699 12.3185 0.835519 0.433015
7089 1 1 16.2236 12.6437 2.40127 1.23803
1836 1 1 17.1466 11.4446 1.7137 2.35512
1280 1 1 18.7298 10.432 2.41646 2.46233
259 1 1 0.791427 12.9241 2.04232 0.45067
7047 1 1 2.04945 13.4385 37.131 0.743992
234 1 1 3.14529 12.8412 1.56192 1.54799
1448 1 1 18.2585 12.7466 3.427 1.8393
7961 1 1 6.55051 13.362 0.917462 0.811361
6379 1 1 5.67651 14.8458 2.71669 1.37478
299 1 1 5.47035 13.6663 1.05412 1.39402
481 1 1 6.73638 14.1375 3.26005 0.562615
7678 1 1 8.56838 13.5092 1.70587 0.871065
7035 1 1 8.90572 13.1791 4.41349 1.22077
769 1 1 11.4871 13.1195 4.6535 0.474344
7266 1 1 11.4403 9.73064 2.64441 0.703195
7856 1 1 12.8129 12.4983 1.45253 0.647878
338 1 1 13.7969 13.7947 1.65319 5.09252
1617 1 1 13.3101 11.4626 1.15907 0.228057
1017 1 1 16.2768 12.1621 1.57339 3.82828
629 1 1 15.4732 15.0649 2.15938 0.844095
7999 1 1 17.5265 13.0099 4.49053 1.47081
255 1 1 16.707 13.4211 0.848818 0.696302
2974 1 1 16.4131 15.8304 2.25432 1.48706
6833 1 1 17.1954 12.1876 2.31613 1.01863
1042 1 1 18.6341 15.8926 0.182208 2.52441
7772 1 1 1.22963 15.3467 3.71656 0.514063
1340 1 1 2.1764 16.9034 3.04924 0.638503
6459 1 1 18.3971 17.8721 2.47161 0.206042
1676 1 1 1.53062 15.3658 2.23908 0.503314
4804 1 1 1.43981 13.8902 1.65674 2.76881
1651 1 1 5.59491 14.3997 3.91333 0.999875
7405 1 1 9.19426 14.9588 1.61716 1.4658
1416 1 1 9.58431 15.4205 37.5872 0.39726
6321 1 1 9.7658 16.802 2.0105 0.616454
815 1 1 7.73386 14.7765 3.09269 0.284566
2347 1 1 12.3371 12.3103 2.32941 1.7824
2046 1 1 12.5583 13.3559 2.42673 1.68521
7950 1 1 14.1054 15.5107 3.91068 0.651726
1077 1 1 12.9526 15.4501 4.25543 0.843947
89 1 1 10.3427 16.5002 0.930925 1.99042
7444 1 1 13.6043 13.7585 4.92648 1.69335
1269 1 1 17.0094 17.4323 0.820921 2.20027
1110 1 1 13.0722 13.3813 3.45522 1.99221
336 1 1 13.9912 14.7608 2.83565 2.35696
1614 1 1 14.8035 14.3029 1.97873 0.854429
1170 1 1 15.5995 12.9461 1.32732 2.28544
1367 1 1 16.8852 16.1703 1.2153 0.932991
1984 1 1 18.731 15.9825 3.40612 0.841342
1652 1 1 0.0968121 17.121 3.17406 2.42167
5605 1 1 2.31192 15.4455 4.11763 1.94388
157 1 1 3.42856 14.8499 4.72206 3.93668
549 1 1 18.7505 17.0093 1.5511 2.2879
1128 1 1 4.23017 14.2785 5.1817 2.31571
3499 1 1 2.57956 17.1671 36.2995 7.30289
6280 1 1 5.8375 15.2176 1.52737 2.69195
687 1 1 8.76752 14.5121 2.43592 1.83171
7303 1 1 5.44113 16.9034 4.58245 2.02829
6688 1 1 7.40039 16.9476 1.57448 1.28371
898 1 1 10.3982 14.3114 1.79679 2.2679
1453 1 1 8.85908 17.0563 35.9475 1.18129
6582 1 1 11.1459 16.8925 2.42654 1.90247
343 1 1 14.0553 17.7188 1.01522 2.75574
990 1 1 14.3054 16.1975 2.63714 0.887702
1139 1 1 13.7499 15.7237 2.00971 1.73146
1604 1 1 16.1271 14.592 4.43965 1.11153
1070 1 1 15.006 15.4869 2.9767 0.310773
7826 1 1 18.4632 0.633395 0.45393 1.26342
7847 1 1 17.1974 16.865 2.22502 1.39041
7951 1 1 4.45397 1.78097 3.38288 0.20017
18 1 1 17.5177 18.4537 2.26541 0.699458
7454 1 1 2.51534 15.9973 2.22463 1.74954
531 1 1 4.15861 18.1608 1.77902 2.05655
1147 1 1 6.48766 17.6308 2.06336 4.53678
1466 1 1 7.45464 18.3895 3.70599 1.51688
490 1 1 6.28051 2.33605 2.52308 0.947137
32 1 1 8.97175 18.0371 1.15006 1.91832
62 1 1 10.4773 15.3522 2.77624 2.50982
961 1 1 11.159 18.614 1.7852 1.24705
7821 1 1 8.95112 18.1372 4.57068 2.49376
55 1 1 12.526 15.4793 2.55841 1.16064
1616 1 1 11.0233 17.2342 3.53201 2.19012
505 1 1 10.5315 17.4955 37.3416 0.262771
2348 1 1 15.0367 16.724 1.70496 2.46091
409 1 1 14.0132 0.901606 0.555085 1.99682
6824 1 1 16.1871 17.4426 5.74543 1.62447
670 1 1 17.2605 0.991536 2.65679 4.1171
6430 1 1 18.3255 17.9571 36.7795 1.56694
7434 1 1 17.1079 1.3783 4.31859 3.70899
910 1 1 18.3849 3.43985 4.7743 0.478918
7947 1 1 0.973716 2.0992 3.36364 0.183023
7451 1 1 17.8025 1.6132 3.4293 4.59026
1902 1 1 2.39839 1.92197 3.59835 1.32875
2365 1 1 7.69692 0.592864 2.40095 2.77433
656 1 1 5.31612 2.0983 3.77739 1.15954
902 1 1 5.11176 1.66162 4.805 1.6499
7818 1 1 11.5327 0.0842489 4.34752 0.864903
1781 1 1 9.34142 17.6968 2.28245 1.76507
676 1 1 8.91053 14.968 3.64695 2.67589
2204 1 1 12.2997 18.6858 1.73918 2.35768
2208 1 1 11.7893 0.198855 5.93709 1.01105
164 1 1 12.091 2.11547 3.76079 0.835918
147 1 1 12.1504 17.6577 2.74657 0.804562
1473 1 1 14.3084 17.1386 3.0836 4.08278
7669 1 1 14.4909 0.57229 2.27709 2.93299
807 1 1 15.0248 0.401265 4.57328 2.45476
7830 1 1 15.9834 1.07676 1.05661 3.97185
881 1 1 16.7664 18.3702 5.22229 0.648916
2134 1 1 0.145076 18.4062 4.66073 1.50039
1909 1 1 1.06041 1.04403 5.52182 1.79856
2066 1 1 18.4291 2.22789 4.28815 1.04023
7188 1 1 2.13195 3.65658 4.13602 0.512622
1654 1 1 0.485581 0.823679 2.28613 1.9464
686 1 1 1.56618 5.19687 4.19288 0.503033
96 1 1 3.59552 2.95137 4.59896 0.515972
1322 1 1 3.66168 1.56466 1.50455 1.01451
148 1 1 2.36256 3.66279 6.58483 0.429725
729 1 1 3.1888 3.73325 2.44587 0.0317279
6922 1 1 10.0404 1.1988 4.12926 0.955727
1543 1 1 8.37058 0.952516 4.09479 1.16981
7934 1 1 5.96361 3.03384 3.41134 0.937695
544 1 1 8.81087 0.371114 37.4542 3.35342
6942 1 1 6.91236 18.0661 4.945 0.852759
61 1 1 8.24219 1.80699 3.31289 0.517518
1291 1 1 11.095 0.631894 5.36784 1.56428
822 1 1 12.9054 17.1369 3.20883 1.10706
479 1 1 11.8032 4.80215 3.76101 2.07424
1239 1 1 12.9686 3.6068 5.16314 1.81401
149 1 1 17.6992 2.81414 3.47715 0.967427
772 1 1 18.1571 0.877415 4.87844 1.83242
1826 1 1 13.2433 4.45357 5.54013 1.81951
519 1 1 15.7174 1.16186 4.51727 3.08254
914 1 1 16.4546 4.97061 3.59336 1.80745
1354 1 1 16.7694 3.75072 3.04871 1.99439
965 1 1 17.5816 3.09624 5.49769 0.996698
7887 1 1 0.978059 4.56061 1.2897 1.6732
845 1 1 0.507238 4.1963 5.44082 0.581103
1738 1 1 2.32607 2.55627 5.02114 1.19472
109 1 1 1.62266 8.0787 3.60027 1.52827
692 1 1 4.21465 5.50988 5.48619 1.31015
7366 1 1 3.10179 3.93303 4.24359 0.985496
7215 1 1 5.40447 3.55031 2.50486 0.606853
7861 1 1 6.92739 0.821949 4.43511 2.26755
125 1 1 7.7288 3.63509 3.04884 7.48333
5799 1 1 11.3475 2.7052 2.71753 0.823268
1302 1 1 10.1184 4.20238 5.20302 1.66059
2191 1 1 12.1336 5.00978 5.53831 5.27378
7322 1 1 11.6288 2.58757 4.68363 0.451484
7532 1 1 13.0955 0.89288 6.50732 1.33889
98 1 1 12.1403 4.06198 4.51704 2.78268
1450 1 1 15.4962 3.44341 4.61084 0.934167
7758 1 1 16.1385 3.13175 6.05979 2.45813
588 1 1 14.868 3.22758 3.53239 2.26428
2793 1 1 15.3117 4.82598 3.01167 0.475948
1336 1 1 16.5081 3.70904 5.04685 1.75088
7595 1 1 18.5749 3.28475 2.93629 0.350412
7202 1 1 15.8992 4.09704 3.92452 1.79499
115 1 1 16.3688 2.8873 4.53867 1.33023
774 1 1 0.182547 7.78178 4.99688 1.4539
7791 1 1 2.01245 6.20494 3.78544 1.45761
2033 1 1 3.42578 5.44902 4.69633 0.380493
2044 1 1 2.42297 4.97843 3.52152 0.026105
799 1 1 3.99888 7.63883 4.92099 2.06008
489 1 1 3.22061 5.00431 1.47995 1.01303
188 1 1 6.73948 7.00076 3.02705 1.01702
580 1 1 8.87815 4.59402 5.44688 1.94152
7251 1 1 8.4171 6.3624 6.4689 1.86931
1850 1 1 8.5742 4.65353 4.40387 0.383563
6566 1 1 10.5654 2.58133 4.90737 0.810204
5747 1 1 7.72091 4.65042 2.17893 3.88287
6996 1 1 8.62138 3.18389 3.51702 0.283128
1025 1 1 11.4455 5.81067 5.53343 0.57712
1585 1 1 11.861 3.97516 1.16435 0.690648
6470 1 1 13.716 4.57321 2.12871 0.518135
7782 1 1 14.0903 5.53169 5.26061 0.262702
2139 1 1 14.4509 5.22797 2.75003 0.17156
1422 1 1 14.8567 7.44464 3.86426 0.617675
1213 1 1 15.4992 5.45181 4.59241 1.71083
7579 1 1 14.2863 7.69972 2.80127 0.473985
6719 1 1 16.7279 5.79318 2.53565 1.45145
7659 1 1 18.2666 7.80139 4.15192 0.29203
383 1 1 0.895529 4.43395 4.41697 1.7856
72 1 1 0.470132 6.72545 3.46728 3.49722
913 1 1 18.3618 9.04286 4.21242 0.275547
608 1 1 3.78926 6.16123 2.55331 0.309935
6159 1 1 18.1274 8.49903 5.18738 4.50235
509 1 1 4.02622 3.84114 1.9814 1.13075
2917 1 1 4.17461 7.74593 3.24142 0.236028
7601 1 1 3.98927 6.64597 4.00359 4.33997
3 1 1 3.14773 6.58961 5.52872 0.843332
1002 1 1 4.83644 5.85525 4.47294 3.17316
217 1 1 7.38706 6.68261 5.64598 6.33933
6477 1 1 8.99669 7.19871 2.91601 0.557621
985 1 1 6.99376 5.70679 5.1874 0.248994
7387 1 1 10.0227 6.03872 4.05718 0.262928
7683 1 1 8.14912 5.55203 2.41278 0.175702
7685 1 1 7.68744 5.56455 3.66197 2.23478
2855 1 1 11.3798 9.68447 4.07747 2.93208
6619 1 1 12.379 8.27738 1.03773 0.575712
7850 1 1 10.0172 7.0192 6.37392 0.988668
7725 1 1 12.6788 5.56539 6.29244 0.725782
1203 1 1 16.8665 7.29946 3.18512 0.640712
102 1 1 17.9266 6.8649 2.20416 1.37594
538 1 1 1.12692 5.9825 5.07708 0.801936
1757 1 1 17.8189 8.71179 2.18532 0.267092
802 1 1 2.14946 9.21996 3.41538 0.646642
926 1 1 0.0122222 6.68828 4.49418 1.39554
1275 1 1 2.49994 8.83397 4.52965 2.36264
7326 1 1 3.44918 7.48658 7.2634 0.917996
7242 1 1 3.41102 7.01717 3.19085 2.4927
153 1 1 6.12176 8.32967 4.3959 1.42355
1547 1 1 6.28074 7.77804 1.92414 0.837205
6971 1 1 5.30798 7.6938 2.0708 1.41237
1475 1 1 9.22643 6.21613 2.52513 1.54637
408 1 1 8.19778 6.52897 4.10302 0.921007
7335 1 1 8.61054 9.58737 2.85724 1.42468
1809 1 1 11.6106 8.44293 4.72841 2.89914
557 1 1 12.8504 6.05202 5.49657 2.6231
2798 1 1 17.8604 6.35542 3.5598 2.15271
2151 1 1 15.0895 6.45742 0.783956 0.693424
1079 1 1 1.91438 10.3195 3.36644 0.576738
1728 1 1 3.39162 11.3648 2.46478 1.33087
634 1 1 1.70746 10.0172 4.95301 0.545527
1005 1 1 3.06331 9.96099 3.18682 1.90923
715 1 1 7.31136 9.46887 2.68465 3.47268
440 1 1 5.91234 8.89345 3.51996 1.23305
345 1 1 6.71193 7.67693 3.66281 0.146221
154 1 1 8.43369 8.46824 2.91918 0.568327
1194 1 1 9.30106 8.65204 5.15039 2.66551
1295 1 1 9.06922 10.2266 2.02051 0.894836
825 1 1 11.0509 9.84198 5.31576 0.464338
1833 1 1 10.3762 10.2408 4.55418 1.62812
572 1 1 13.4903 11.8091 4.19556 0.780525
7739 1 1 13.3784 10.9207 3.16852 4.8267
1802 1 1 14.5751 11.1339 0.976017 2.09257
7085 1 1 15.5886 9.34303 1.01215 3.21074
790 1 1 17.2259 9.4547 2.84372 2.16549
667 1 1 16.7006 8.33014 3.45748 0.212466
1709 1 1 18.6315 10.7028 3.41686 0.414993
3565 1 1 18.5299 12.4612 4.29623 0.301799
1287 1 1 1.52691 11.4387 5.32957 1.65715
1349 1 1 4.53052 8.61518 2.91505 2.12506
6563 1 1 5.95215 12.2427 1.41127 3.51526
7130 1 1 3.91984 12.8132 6.46551 0.946691
6196 1 1 5.55638 8.71613 5.53927 2.0654
146 1 1 5.99483 10.6948 3.72435 2.07565
840 1 1 5.14912 10.3687 4.21254 0.852539
5697 1 1 5.47202 10.6456 0.420201 0.562805
529 1 1 7.37853 8.42385 2.17171 0.833939
95 1 1 5.8384 10.5374 2.7336 1.17618
7459 1 1 6.20347 10.3022 1.09527 0.659557
823 1 1 8.91675 10.6288 3.31804 0.885516
487 1 1 8.75051 11.7645 1.97161 1.32056
7139 1 1 7.87712 10.1854 3.76453 1.04466
1940 1 1 8.99333 11.8536 6.30909 2.46891
1487 1 1 8.50274 10.3893 4.5972 0.525526
416 1 1 12.6432 10.6898 3.8269 0.855465
1199 1 1 14.069 8.64213 4.2282 2.0064
7156 1 1 13.473 11.8174 5.24421 0.304154
7004 1 1 16.9032 11.6149 4.31384 0.565656
1426 1 1 17.7651 9.78597 6.33526 1.36435
1000 1 1 0.988431 11.2424 3.58042 0.958914
2621 1 1 18.3818 11.4775 4.75187 1.02675
6762 1 1 1.47381 12.1471 2.40574 4.97163
2329 1 1 4.76152 13.3805 5.04691 0.207343
7717 1 1 3.02756 12.1697 6.1122 0.858721
7755 1 1 5.64003 15.3806 3.71068 1.30316
6842 1 1 4.03581 13.1013 2.5166 1.17846
699 1 1 6.21225 11.4571 4.67596 2.30505
2732 1 1 8.59633 12.8003 3.02134 0.119308
7704 1 1 7.81061 11.1233 4.24277 0.856967
1920 1 1 11.1636 10.8973 4.87092 0.250792
640 1 1 9.817 10.8444 2.69396 1.14771
7531 1 1 11.6691 11.9153 4.73812 1.33187
221 1 1 13.1179 10.4223 1.95213 1.03261
1100 1 1 13.687 12.2499 3.17179 0.455762
7798 1 1 14.6008 11.1289 5.21145 1.13944
7040 1 1 13.3461 13.2837 0.259166 11.2747
1493 1 1 16.5357 11.5443 2.45187 0.344543
1184 1 1 15.7815 11.1083 4.58707 1.15584
888 1 1 16.6623 13.9633 3.47448 1.70096
1024 1 1 0.586389 11.585 4.77814 2.08668
986 1 1 18.7655 12.2685 5.43599 2.32973
2277 1 1 0.0780081 13.7603 5.35964 1.22293
204 1 1 1.44596 16.3645 2.79499 1.82005
1233 1 1 17.1936 12.4017 3.54761 0.180558
203 1 1 0.248499 14.5068 4.84284 2.35239
7621 1 1 4.62271 15.256 3.25214 1.19199
178 1 1 4.51927 13.9346 2.99536 2.53925
7811 1 1 4.90221 12.6721 0.196007 0.776741
584 1 1 6.94693 12.2065 2.12776 0.862962
245 1 1 7.05407 14.1487 4.46754 2.2779
1505 1 1 6.19574 12.3573 5.70808 5.47073
1853 1 1 7.13066 11.6235 3.68143 0.884052
7489 1 1 9.34797 14.0255 1.59127 0.8049
906 1 1 9.92899 13.5072 3.08854 1.01316
2032 1 1 11.1204 12.9749 3.05528 1.61353
2126 1 1 13.9728 12.1165 1.942 2.47465