ITEM: TIMESTEP
1700
ITEM: NUMBER OF ATOMS
8000
ITEM: BOX BOUNDS pp pp pp
0.0000000000000000e+00 1.8820720577620570e+01
0.0000000000000000e+00 1.8820720577620570e+01
0.0000000000000000e+00 3.7641441155241139e+01
ITEM: ATOMS id mass type x y z v_temp
129 1 1 2.4439 18.5212 37.4397 2.09122
7265 1 1 2.71642 2.26046 37.5829 2.39615
692 1 1 2.59665 2.06958 1.41609 1.00409
7267 1 1 2.19938 2.34259 36.3154 2.08814
7818 1 1 3.49932 18.7765 1.7843 0.689863
7996 1 1 5.68853 16.7858 36.6473 1.31252
7535 1 1 8.38791 2.67186 2.62671 1.8204
1196 1 1 10.7629 18.526 1.9288 2.32909
1200 1 1 13.2775 16.5003 3.90505 1.66741
726 1 1 11.8693 2.66896 0.882298 0.311248
6814 1 1 17.0031 2.13091 37.2857 1.03304
881 1 1 14.7742 18.5778 1.65181 3.92826
1269 1 1 16.9391 17.6725 0.1022 1.18707
511 1 1 14.4685 1.71831 2.69033 0.43535
576 1 1 17.6156 3.99037 0.247353 0.286736
351 1 1 1.41696 2.15666 0.574528 2.99788
7647 1 1 18.5958 17.5704 35.4121 0.220543
6648 1 1 1.84534 4.11535 2.71939 1.02428
774 1 1 1.66499 3.21858 2.05137 0.338619
7226 1 1 4.3466 1.67714 1.68467 1.18872
547 1 1 5.60491 0.856635 1.94757 1.50424
6076 1 1 5.60746 2.17946 1.84003 0.632546
7503 1 1 6.87264 2.31469 1.38574 0.612008
7982 1 1 7.58813 0.0349523 4.37573 3.10206
6986 1 1 9.64304 0.960239 1.80393 0.678295
6855 1 1 8.83632 2.63896 37.1423 0.176304
7032 1 1 9.12458 4.12729 1.55375 0.317714
1806 1 1 13.6202 3.47302 0.359659 1.21999
593 1 1 10.8673 1.33411 36.876 1.87491
1333 1 1 12.1552 1.57634 0.559058 0.274032
7669 1 1 12.5313 1.02614 2.49621 1.63808
1315 1 1 17.3157 2.62557 0.83299 0.897165
914 1 1 15.0994 17.4465 3.92419 0.45741
7301 1 1 14.3425 3.13068 37.4343 1.44976
1473 1 1 15.4751 2.0683 2.37365 0.760855
6868 1 1 16.2017 3.6679 0.558146 2.19933
18 1 1 18.6871 1.85487 1.96388 1.62056
7440 1 1 16.3966 0.812478 1.81971 6.34437
47 1 1 17.4467 4.24945 2.82377 1.5469
447 1 1 0.266014 6.92869 36.852 0.319591
508 1 1 2.08902 2.9384 1.01297 1.53283
6006 1 1 0.978391 3.47106 36.9203 0.60204
7660 1 1 3.6276 4.5643 1.08815 1.07781
7718 1 1 5.11645 4.46561 0.586195 0.545225
1309 1 1 6.79308 3.38921 1.96648 1.6135
7332 1 1 7.40826 2.10387 2.19048 0.608765
7653 1 1 7.76532 3.06777 1.85437 2.10879
6477 1 1 8.27514 1.64694 1.20823 0.932238
7666 1 1 10.4475 4.29145 2.33201 0.0384044
73 1 1 11.9193 2.62056 37.4494 0.648703
1664 1 1 14.3986 4.96881 0.837551 1.20025
7911 1 1 13.2996 2.52799 36.7972 1.57978
271 1 1 13.2712 4.35562 0.442607 1.74117
515 1 1 11.7249 1.72425 1.91436 0.762164
966 1 1 15.9241 2.64397 37.3449 3.41155
7841 1 1 0.887647 3.00441 1.44629 1.14609
366 1 1 1.48336 4.02618 1.51496 4.3019
7937 1 1 18.0872 3.57098 1.87051 0.209957
7507 1 1 0.477724 6.35843 1.08357 0.927158
3 1 1 4.42992 4.54772 2.05218 0.463994
7879 1 1 4.47031 5.16491 1.15469 1.33846
429 1 1 7.62953 5.86005 1.08125 2.33737
1850 1 1 4.91257 3.51755 1.03944 0.489543
529 1 1 6.14409 6.90252 1.99848 0.830382
7644 1 1 11.4619 6.10941 1.80123 4.0288
6942 1 1 6.16093 4.40842 3.46368 1.71819
7625 1 1 11.9354 6.01197 2.75917 0.281043
6703 1 1 9.64281 5.46074 2.61413 1.37251
7466 1 1 9.96951 5.77082 0.164896 1.07404
1329 1 1 14.9815 5.61699 0.293081 3.97989
6872 1 1 13.6534 18.7855 1.6973 1.64278
7432 1 1 18.0699 6.38847 2.61844 0.673366
7086 1 1 1.57095 1.69579 35.741 0.378779
7641 1 1 2.63279 8.19486 3.91212 1.65469
6848 1 1 2.71797 7.46906 2.73299 2.18366
354 1 1 4.53542 7.75516 0.886697 1.77868
1045 1 1 2.5615 4.43591 1.22646 0.265433
945 1 1 7.1424 8.06431 0.196107 7.44603
7663 1 1 5.99371 5.69538 1.4131 1.03684
193 1 1 9.98792 3.52635 0.452084 1.74513
796 1 1 8.96767 5.97661 3.45921 1.74884
543 1 1 14.2945 7.20733 2.65067 1.2981
6657 1 1 12.3228 9.58481 36.8933 0.208297
7348 1 1 12.2232 5.42034 1.11144 0.517185
91 1 1 14.7708 7.41751 1.75911 1.52861
276 1 1 15.4761 7.65258 0.131036 0.291033
7972 1 1 13.7674 6.35594 1.96278 0.50204
79 1 1 15.6414 9.36813 2.50737 1.44711
7479 1 1 15.4896 5.67289 36.0466 1.13306
72 1 1 1.52251 7.0653 0.276095 2.25056
6762 1 1 1.42349 8.74078 0.91126 3.95415
6705 1 1 2.14215 9.02674 37.4818 1.7659
158 1 1 3.39484 8.40603 36.7136 0.574934
7424 1 1 1.72679 7.26038 36.863 0.926075
7047 1 1 3.99475 8.03097 0.00673698 1.11251
997 1 1 5.68331 5.95674 37.1485 0.345929
925 1 1 6.03205 7.43924 0.138117 0.945357
7803 1 1 4.08503 6.44256 1.09701 0.530539
6235 1 1 8.27253 9.22983 36.4291 0.275148
6874 1 1 7.76254 9.4222 1.00954 0.648684
7096 1 1 7.64672 7.25633 0.817956 1.65468
1820 1 1 7.54205 5.61802 36.0247 2.13007
214 1 1 8.4667 7.8195 1.69607 3.89612
6619 1 1 11.398 7.59951 0.266888 1.89036
181 1 1 12.4534 9.34238 0.328285 1.62465
86 1 1 15.9532 8.93945 36.7245 1.18364
762 1 1 15.5393 6.60778 0.351475 2.10665
617 1 1 14.6178 7.32314 37.5225 1.55203
108 1 1 17.5158 6.786 3.76881 1.24198
884 1 1 1.34641 9.77556 35.5108 2.54361
736 1 1 17.9808 10.3133 36.8495 1.11956
146 1 1 1.50387 11.9725 35.7232 1.36388
5397 1 1 0.828749 10.2065 0.922723 2.47995
442 1 1 1.99491 9.1865 36.2162 8.29896
7721 1 1 1.49569 9.91589 3.02774 0.77591
6126 1 1 5.50891 8.92208 0.871075 4.05238
538 1 1 2.08749 7.91185 37.5507 3.8075
178 1 1 3.05191 9.49333 1.6386 0.644379
5813 1 1 7.25881 9.59041 35.1101 2.55517
7326 1 1 6.01776 8.46665 36.8618 0.906923
1046 1 1 6.10813 9.06484 1.72479 0.673237
721 1 1 10.2225 10.5825 1.14167 1.18359
1224 1 1 7.61415 8.81151 1.95494 0.183093
570 1 1 8.21251 5.27357 1.51732 0.705654
6470 1 1 10.9999 8.65205 36.8035 1.56522
6933 1 1 9.82698 9.09193 0.369775 3.0831
6527 1 1 11.2513 11.5638 0.293612 1.65216
6693 1 1 12.5185 9.39807 1.32974 0.719042
349 1 1 14.1729 10.8443 35.7861 0.341859
1349 1 1 17.0304 11.1734 1.75108 1.95423
253 1 1 11.2546 7.13363 36.7345 0.521571
1074 1 1 15.4434 8.6441 1.55334 5.61961
877 1 1 17.9053 7.87607 36.3349 0.622949
712 1 1 16.2408 10.2756 2.09478 0.694215
7913 1 1 14.9914 10.4743 1.99544 1.67867
1036 1 1 18.0822 8.3407 1.76572 0.324792
889 1 1 18.4611 10.3539 0.395092 1.33239
1093 1 1 1.12135 10.5224 2.10234 2.05892
1280 1 1 1.76427 11.1923 2.36681 1.0932
7011 1 1 5.2449 12.0525 1.01977 3.65596
7144 1 1 6.3433 8.63509 35.9379 3.11495
1172 1 1 5.43851 9.53964 37.4895 1.49844
7621 1 1 4.11158 8.68071 1.10855 4.89005
6842 1 1 7.09397 10.059 0.636002 0.462394
7065 1 1 7.89854 9.66809 37.4698 1.39498
10 1 1 7.74874 11.248 2.09718 0.558988
7740 1 1 8.77136 9.46759 0.705882 0.511174
6750 1 1 13.9023 12.5965 0.860772 1.76233
574 1 1 13.9423 11.628 0.381518 0.766136
7635 1 1 13.3678 10.6208 36.7943 0.166253
423 1 1 15.083 11.9114 1.62216 1.37757
501 1 1 12.8766 12.131 36.944 2.24961
683 1 1 14.364 9.62887 0.605294 0.823741
669 1 1 17.0641 7.86756 1.31616 1.11514
247 1 1 17.3734 8.96642 1.94532 0.846239
5857 1 1 17.4268 8.76222 37.3013 1.79789
1528 1 1 0.328029 11.5838 1.5364 1.98637
1350 1 1 4.04792 13.0933 37.6252 0.802623
7060 1 1 1.13484 12.2382 2.00622 3.53869
7174 1 1 3.47663 11.8086 0.249246 0.609716
1681 1 1 6.27913 11.8625 0.527734 2.85492
584 1 1 5.92401 11.7466 1.71501 1.36039
365 1 1 8.09876 12.6735 1.77193 2.18738
955 1 1 7.62854 11.1403 -0.0064227 0.807807
38 1 1 12.0017 10.9551 1.14218 3.42484
255 1 1 9.55645 13.8628 0.356196 2.79906
6752 1 1 10.5729 12.7563 0.0730655 1.25854
6567 1 1 11.5314 12.3558 37.216 1.41555
286 1 1 10.942 12.2857 0.928594 2.83417
7545 1 1 13.0497 12.0784 1.1061 2.22649
7634 1 1 14.0578 12.4243 37.207 4.29574
237 1 1 13.6751 12.7113 36.2634 0.448716
7483 1 1 17.6375 11.0344 0.0362975 0.386268
6599 1 1 15.7676 9.86149 1.2744 0.571919
7089 1 1 17.8533 10.9254 1.18648 2.54948
579 1 1 17.3944 13.2223 37.3379 4.52889
1234 1 1 17.2955 11.744 0.989621 1.82332
7555 1 1 0.232655 13.8823 36.9417 0.672182
6788 1 1 4.89117 11.7634 36.4648 1.34484
8000 1 1 3.61314 14.2308 37.5768 0.670328
6232 1 1 4.58739 13.6536 0.535992 1.59107
1995 1 1 6.84278 15.4115 0.315528 1.51695
215 1 1 3.48818 16.891 3.89706 0.786426
815 1 1 6.12498 13.0411 1.15534 2.87367
1908 1 1 10.1471 14.0486 36.6562 0.181998
5866 1 1 9.42239 14.3004 1.33696 2.54139
53 1 1 9.46911 12.9811 1.14305 5.23304
6686 1 1 12.1647 12.3057 0.268241 1.17432
7888 1 1 15.6069 13.157 36.9585 0.779021
7390 1 1 14.9975 15.4331 0.0204941 0.904015
234 1 1 17.8182 12.7838 0.734533 4.73011
375 1 1 16.5383 13.6228 1.34511 0.83831
7826 1 1 17.7643 13.8554 2.2127 2.53773
634 1 1 15.8115 12.0615 37.3709 3.39531
7947 1 1 0.274551 13.4694 1.10026 0.684339
7968 1 1 0.899774 14.2044 0.229957 0.534649
1529 1 1 0.708473 14.4082 1.7439 1.47777
559 1 1 18.6527 15.6353 1.88843 0.941387
704 1 1 5.46184 12.4437 0.0818388 0.2317
7854 1 1 5.82907 14.0009 0.439921 2.72322
769 1 1 5.1984 13.4423 1.54913 0.211704
6379 1 1 7.08166 11.3369 0.986067 1.99503
7926 1 1 2.77515 15.8743 0.459091 0.109739
504 1 1 4.43945 16.4305 1.33514 1.02013
6600 1 1 5.89619 16.3839 2.01032 5.08197
1150 1 1 9.08923 14.7424 35.9377 1.08055
7457 1 1 10.2838 15.6603 0.394065 2.13125
377 1 1 8.6484 15.7628 2.32999 2.7994
746 1 1 18.4989 16.4442 37.0414 2.44938
1042 1 1 16.5295 14.4318 0.712886 0.442288
629 1 1 15.7113 15.1842 0.991957 0.413063
558 1 1 2.04538 14.5083 0.361793 4.41554
7869 1 1 17.7815 14.8459 36.169 1.12621
7951 1 1 17.3529 15.1741 1.10924 1.9813
7604 1 1 3.07324 0.888198 0.591289 1.28216
1485 1 1 3.04225 17.4497 36.194 3.36952
1481 1 1 3.62765 16.432 0.540034 3.30284
775 1 1 5.2692 18.6454 36.7994 0.17416
7569 1 1 4.94668 16.1694 0.416469 2.49147
7206 1 1 8.97238 17.9423 37.0102 1.23536
6914 1 1 8.59002 17.4864 2.46898 1.65169
227 1 1 10.5154 16.7269 2.94871 2.64052
708 1 1 12.2566 15.8998 36.811 1.18777
7550 1 1 10.8102 18.2756 0.9659 1.58539
7341 1 1 12.5812 16.7626 0.701227 0.443706
1110 1 1 13.3654 16.594 1.30304 2.52221
22 1 1 15.2971 17.5274 0.0369482 0.735732
356 1 1 13.2985 17.532 0.937694 1.68168
7202 1 1 15.7917 16.2469 1.27081 2.39992
7999 1 1 15.3352 15.4072 2.4303 4.16
6845 1 1 18.1391 18.4087 0.324136 2.19708
6777 1 1 1.9343 0.887865 0.274345 0.459785
194 1 1 1.08731 1.33438 37.2638 1.06122
6713 1 1 3.29107 17.3992 37.4163 1.24704
6835 1 1 6.17237 17.6803 1.5627 0.438031
1573 1 1 5.15347 18.5848 2.44763 0.117012
228 1 1 5.79758 15.8164 36.2329 3.43985
3576 1 1 8.55525 0.0604642 37.3409 0.551024
1206 1 1 9.71955 17.7006 0.978497 1.91664
1139 1 1 9.92542 0.102186 1.1222 1.31226
2020 1 1 11.8373 16.7596 35.263 2.57409
1339 1 1 11.7005 0.154471 1.32733 1.6544
338 1 1 10.4376 17.4207 1.90386 1.05794
6636 1 1 15.7426 16.4075 0.113226 0.708356
7478 1 1 18.2362 1.10691 36.6701 2.1926
7261 1 1 0.0877395 18.7011 1.06777 1.82488
2367 1 1 18.1226 17.4237 0.368823 1.94379
33 1 1 17.8213 0.159036 35.3884 2.67421
1999 1 1 17.7645 18.6472 1.77682 0.779214
1198 1 1 2.10514 18.4132 0.801986 0.526823
643 1 1 2.04454 0.704479 3.66571 0.340871
2347 1 1 6.63636 17.9011 4.25497 0.576086
6152 1 1 3.48186 1.73694 0.823523 3.15231
175 1 1 8.21429 0.897374 2.04982 0.163674
895 1 1 6.33705 1.41811 2.69272 1.59335
633 1 1 6.79784 1.62855 3.65275 1.24137
1446 1 1 7.91843 0.709553 0.824694 0.320279
1416 1 1 8.74355 0.486781 1.19538 2.72109
94 1 1 8.89904 1.56652 2.40468 3.18165
1749 1 1 12.0346 18.7421 2.78399 1.20127
824 1 1 10.6164 1.19492 3.27556 0.271141
6079 1 1 10.4647 0.151735 2.75296 0.278138
7745 1 1 12.5492 0.149882 0.494075 2.8693
383 1 1 16.8191 1.55033 0.939938 1.52005
677 1 1 14.8491 2.39154 0.346106 1.25415
608 1 1 1.06297 17.8892 2.23348 3.32962
31 1 1 1.1369 3.02004 0.311189 1.19955
1348 1 1 3.75449 2.73955 0.0747115 1.08159
427 1 1 0.077739 3.26165 6.77847 2.72364
155 1 1 3.58054 2.57133 1.90913 3.90052
7903 1 1 1.0566 2.28289 2.62953 0.387762
109 1 1 4.38597 0.601363 3.42985 0.203843
406 1 1 2.93174 3.3412 1.63621 1.9153
936 1 1 3.96881 3.61823 1.30156 2.56801
2126 1 1 7.4458 1.65576 4.61132 0.419217
7539 1 1 11.1268 2.85359 3.9174 0.257231
1993 1 1 11.5453 0.701451 2.33049 1.80713
418 1 1 8.56389 2.77634 0.45157 1.66169
1213 1 1 10.6219 2.54218 1.91997 2.05695
100 1 1 10.8979 2.41466 0.916412 0.42004
1308 1 1 13.9023 18.4243 0.709881 0.0907196
1007 1 1 16.6393 17.8342 2.012 1.08886
1344 1 1 15.5307 0.316623 2.81679 2.55557
206 1 1 18.0061 2.99296 2.78832 1.88017
7088 1 1 18.322 1.99214 0.936429 1.73916
7980 1 1 16.5142 2.14008 3.92496 5.37507
7646 1 1 18.3792 3.53585 4.22385 2.88695
6995 1 1 18.7861 6.08094 3.34298 1.10029
875 1 1 3.2444 3.79063 0.458168 1.47478
1409 1 1 1.35949 4.90855 0.71944 2.72049
879 1 1 0.380292 3.00082 3.96349 0.811405
1237 1 1 5.47225 2.99813 2.66304 1.58742
7251 1 1 2.00683 2.98657 3.9622 0.516567
580 1 1 6.21485 3.14569 0.958502 2.49173
125 1 1 5.12851 4.03051 3.05995 0.402511
623 1 1 10.6019 6.08665 3.15071 0.435733
656 1 1 4.5872 2.89945 1.98709 0.929061
385 1 1 6.7879 2.98009 5.37438 2.12284
6659 1 1 9.66549 2.40356 2.13304 0.623433
934 1 1 9.27704 2.23117 1.07328 2.42429
3337 1 1 10.0985 5.06674 3.96187 6.13184
7588 1 1 11.6345 3.31098 1.83214 4.917
505 1 1 13.3897 1.30968 1.29308 4.63593
7719 1 1 13.9203 5.98855 3.3859 0.314268
1377 1 1 14.4462 3.02542 1.16932 1.47991
1422 1 1 16.6747 3.47651 4.63162 1.9759
1183 1 1 15.5797 2.91937 1.25238 0.0565475
651 1 1 17.0781 3.36279 2.11138 1.17261
7998 1 1 15.7086 5.45917 2.34319 0.0981462
314 1 1 17.823 4.73763 1.85258 1.52495
802 1 1 18.819 5.31379 1.92022 2.98901
1287 1 1 0.861405 5.48861 2.45941 4.80139
190 1 1 3.05289 6.12475 0.508022 0.947973
2824 1 1 3.66489 3.53238 2.44926 1.52783
1714 1 1 4.07305 6.51206 3.66167 2.34811
7631 1 1 4.07172 5.76182 2.64815 0.612222
1717 1 1 2.63472 5.97214 2.47853 0.899724
1977 1 1 1.95163 5.84433 3.31384 2.07957
661 1 1 6.53825 5.48169 2.93217 1.32517
6922 1 1 9.00171 4.6943 37.5483 1.07749
1076 1 1 8.84103 6.80462 1.81093 0.325786
6136 1 1 7.55535 5.32046 2.63758 1.33459
492 1 1 11.9671 6.93881 3.32845 1.62781
1051 1 1 13.1054 7.06053 2.37386 0.840258
582 1 1 6.88274 5.66212 1.96118 1.61281
2221 1 1 15.0624 4.11184 1.63012 1.15053
7185 1 1 15.4121 5.16095 1.22512 1.21586
6241 1 1 14.9349 4.74749 2.52601 2.70172
444 1 1 0.752356 4.3349 0.047089 4.21441
6975 1 1 0.285653 8.3597 2.96115 2.34274
1562 1 1 2.0233 6.65803 2.25189 2.31306
230 1 1 18.4314 9.3568 3.04272 0.512139
7659 1 1 1.35493 5.59056 1.59665 2.9528
7738 1 1 4.21367 7.93089 2.44451 0.578713
7651 1 1 2.0391 6.63349 4.06906 0.524012
7215 1 1 5.88644 6.64174 1.0065 1.3292
1405 1 1 7.21013 6.16295 5.39002 2.97404
2348 1 1 10.0769 3.30424 1.92249 0.0933567
1194 1 1 9.45458 8.36959 2.42475 0.458869
140 1 1 12.4715 7.51161 1.07744 2.107
469 1 1 15.9449 4.43818 4.27554 3.16415
1193 1 1 13.9547 8.38054 0.758942 2.62438
1274 1 1 14.2519 10.2127 4.53565 3.26456
2197 1 1 16.7825 6.751 36.9132 2.12261
223 1 1 16.4481 5.74621 0.0801385 0.726605
7358 1 1 16.6306 5.09191 2.78137 1.51726
6675 1 1 0.651636 7.0663 2.23429 1.51173
1596 1 1 2.05707 7.758 1.0717 1.763
1917 1 1 1.27225 8.89599 3.33139 2.31248
926 1 1 0.463251 8.16319 1.66996 0.37317
7791 1 1 2.48617 8.24796 4.99906 1.8452
7966 1 1 2.63424 10.7562 2.76082 1.28689
5817 1 1 3.25749 6.0427 1.46977 3.71219
1002 1 1 0.985714 6.34151 3.02468 4.36265
626 1 1 5.52228 7.8383 2.76766 3.69508
615 1 1 6.80615 7.93654 1.34163 2.46322
7643 1 1 7.11048 6.4778 2.6814 0.46912
1427 1 1 5.20073 6.89576 1.75361 0.504717
568 1 1 7.54595 7.7023 2.54523 1.4529
7748 1 1 8.48188 6.15295 2.5271 1.36325
6538 1 1 12.6461 8.02659 2.62138 0.376213
188 1 1 9.60298 6.76798 3.024 0.901502
1069 1 1 11.5824 10.1291 1.93285 0.592309
285 1 1 14.0431 8.54316 4.92367 0.27732
7021 1 1 15.088 8.54416 0.382259 1.50552
7983 1 1 14.561 9.18587 1.93172 1.15761
550 1 1 11.6418 6.33363 37.5218 1.51949
7717 1 1 17.926 5.82832 1.32695 0.691994
1318 1 1 1.17027 8.65729 37.5068 2.36171
6875 1 1 17.5387 8.09243 3.79197 3.97182
7280 1 1 18.1848 4.92656 2.95152 0.22763
107 1 1 16.6531 8.91484 3.69469 0.954906
2110 1 1 1.59625 8.04233 4.50381 1.36266
481 1 1 4.7772 10.2895 1.07873 1.41693
750 1 1 1.03967 11.8938 0.0785017 2.39193
7482 1 1 4.44802 8.02013 4.96111 0.88761
1301 1 1 3.20558 8.47813 2.42506 4.26099
6987 1 1 4.4586 8.91129 2.19468 0.805147
1547 1 1 5.44462 8.2398 1.82189 0.20723
7335 1 1 7.62661 10.1878 2.155 1.88298
1001 1 1 6.22334 9.96305 2.59679 0.491933
2177 1 1 8.91395 4.25851 2.63096 3.62368
7002 1 1 8.48786 10.3558 1.33568 0.927974
7943 1 1 10.5069 8.35886 2.16789 0.103867
2244 1 1 11.6998 8.44674 2.12404 0.16771
6497 1 1 10.3609 9.47386 2.29493 0.59023
6463 1 1 11.6397 10.0747 0.953826 1.2482
6669 1 1 13.1588 8.16005 0.0939798 1.40736
973 1 1 11.0942 9.06882 1.24661 0.310621
7851 1 1 17.4471 9.15873 3.04109 4.81145
790 1 1 15.8709 10.4424 3.1943 0.167075
6569 1 1 18.0547 9.45299 1.43074 1.03188
967 1 1 3.91272 10.0976 0.256517 1.28593
863 1 1 2.02175 10.1746 3.96357 0.376569
1790 1 1 6.54419 10.7304 1.94754 0.465601
1417 1 1 5.22799 10.1205 2.98197 0.725796
1542 1 1 8.07579 10.6949 2.99527 1.1017
232 1 1 12.339 11.4013 37.6282 1.34836
1107 1 1 9.86882 7.4245 2.0398 1.23831
7984 1 1 9.74433 13.5832 2.02422 0.659361
7156 1 1 10.8075 10.5796 2.59643 1.89713
653 1 1 14.2162 14.3398 1.92905 0.858376
296 1 1 15.3682 9.71115 0.250899 3.26823
6590 1 1 14.9555 11.9697 0.234557 1.08674
6939 1 1 12.865 12.4091 1.96147 1.95229
84 1 1 15.2053 10.408 5.26409 2.13978
386 1 1 11.8173 11.0422 2.74027 0.294585
7470 1 1 14.8607 8.95823 4.53214 3.21246
818 1 1 14.8694 11.3669 2.78877 0.910138
7800 1 1 16.8564 10.921 2.74314 2.03301
7845 1 1 1.91198 11.0127 5.51897 0.859437
1360 1 1 0.268973 9.25113 1.66508 4.36728
259 1 1 18.7488 10.7592 1.89643 0.178274
7811 1 1 0.424754 12.6745 1.59052 1.20912
340 1 1 3.63194 10.7516 0.971613 0.372257
6646 1 1 3.67117 12.622 2.30795 2.71048
7805 1 1 2.0866 11.4473 36.6181 0.609811
773 1 1 2.66134 12.2353 1.07331 0.719482
834 1 1 4.15068 11.5316 1.47437 0.285414
7248 1 1 5.97196 13.1064 2.24088 0.923532
290 1 1 5.69038 11.7681 5.05662 1.95275
7704 1 1 8.45195 12.2009 2.82691 2.41179
1165 1 1 7.20408 12.1382 1.80272 0.563922
6946 1 1 8.6719 13.35 2.52671 2.05278
4198 1 1 10.9437 11.5064 1.84244 0.183448
2814 1 1 11.6659 12.4284 2.12857 2.30083
7444 1 1 15.4106 13.6894 1.686 0.333022
7867 1 1 12.7206 11.1702 1.88117 3.17416
1971 1 1 18.176 12.5164 1.99581 2.12209
7855 1 1 1.28683 12.8751 0.969862 0.311105
7772 1 1 1.41699 11.0238 0.952018 1.03849
245 1 1 0.320431 11.807 2.75499 1.34719
6650 1 1 2.19984 13.6331 1.03756 1.95208
7056 1 1 4.38674 12.7631 1.32178 0.405179
7610 1 1 7.90837 11.9507 4.79299 0.685167
452 1 1 6.87756 13.4392 0.225628 1.09102
1144 1 1 8.44875 11.38 1.33389 0.582087
1448 1 1 5.61108 13.7788 3.06112 1.11633
1210 1 1 8.22884 14.4192 1.24533 2.30476
1178 1 1 7.20485 12.933 3.02633 4.01593
6632 1 1 7.51328 13.2519 4.72261 0.869176
1848 1 1 9.75158 13.8001 3.16031 1.5432
1103 1 1 11.3433 13.2915 0.687876 3.93709
6824 1 1 11.4544 14.1628 1.72413 0.303707
1187 1 1 14.6039 13.933 3.43512 3.39851
1143 1 1 16.2728 11.2096 3.68839 1.00668
7853 1 1 14.5892 14.4242 0.679996 2.331
393 1 1 16.335 13.2508 0.128501 0.723585
7887 1 1 0.889374 13.9523 2.63514 2.64391
1604 1 1 18.2091 14.6215 5.61207 0.508866
757 1 1 2.74622 16.7393 1.02447 2.64483
1509 1 1 1.41158 16.4616 1.52816 1.72738
7957 1 1 1.69 15.6492 0.769207 2.2807
6243 1 1 3.65692 14.0041 36.3 0.0774255
445 1 1 4.74224 12.1684 2.35339 2.84756
399 1 1 4.70835 12.6292 3.41887 1.45139
1527 1 1 5.57709 14.6078 2.10132 1.17291
6851 1 1 9.51925 16.4184 1.2728 2.11458
902 1 1 7.71418 15.3959 2.87799 2.07328
829 1 1 7.38285 12.9907 1.03653 1.45188
7040 1 1 10.5407 16.3793 1.59998 0.232748
2661 1 1 9.70111 14.8088 5.26956 0.961446
3108 1 1 10.285 14.9331 3.62127 2.11147
6723 1 1 12.487 13.5908 0.89847 2.36522
389 1 1 14.5538 15.3037 1.32214 2.03536
2345 1 1 14.5609 13.5454 37.208 1.75288
7548 1 1 16.1151 12.3685 0.729428 0.277573
2287 1 1 14.3445 16.0878 0.521241 0.450376
1439 1 1 13.8939 17.1969 3.58077 3.05958
1638 1 1 17.5178 15.5558 2.15521 1.54498
785 1 1 3.37119 16.5433 1.96459 1.2442
328 1 1 0.467967 16.5637 2.07229 0.134322
844 1 1 4.09463 15.0661 1.38227 2.04518
332 1 1 2.03612 16.841 2.67152 7.00502
6459 1 1 4.52485 13.6109 2.42379 0.167941
7613 1 1 5.23903 0.217227 0.304966 3.62612
728 1 1 6.11623 14.1425 4.28764 0.621527
7856 1 1 8.80796 17.6275 4.13103 0.675036
1432 1 1 6.75594 14.3038 1.60424 1.88424
1582 1 1 8.23446 17.4933 1.32787 2.70452
854 1 1 11.6465 15.1115 2.30112 1.71332
416 1 1 10.2232 15.8877 2.48025 2.90308
343 1 1 10.2639 17.076 0.358881 0.168783
7149 1 1 11.5373 16.9747 2.1722 2.32386
1904 1 1 11.9466 14.2847 3.04966 0.697396
1406 1 1 15.825 14.6355 1.89001 2.83504
40 1 1 14.3841 16.8099 2.54162 0.187159
2409 1 1 18.36 14.726 2.44454 1.79498
5999 1 1 18.343 16.5269 0.830969 0.79209
1634 1 1 1.49887 15.6647 2.96022 0.816072
318 1 1 2.81792 18.7905 36.5035 0.23756
686 1 1 2.63436 15.6872 1.42802 0.418486
1729 1 1 3.91947 17.2442 1.0796 2.60153
6866 1 1 7.29546 17.8593 1.9372 0.833434
1328 1 1 8.41829 18.5913 2.36205 0.595593
7785 1 1 6.66423 1.19247 1.46183 2.22334
605 1 1 6.86256 16.8686 0.646729 1.9421
1785 1 1 10.4793 17.9328 2.75183 1.88261
7230 1 1 10.7058 16.6218 4.8507 2.52635
6673 1 1 10.5085 18.7067 4.47223 1.60264
696 1 1 11.6154 17.9943 1.57189 0.393824
841 1 1 11.8607 17.211 3.17134 1.13809
2270 1 1 14.1457 0.662448 2.71631 3.41375
273 1 1 13.3838 17.7471 36.3381 3.10947
859 1 1 17.5702 17.1797 1.65886 0.992491
180 1 1 15.9689 17.8074 3.22159 1.89851
1186 1 1 14.6765 1.01594 1.69471 0.209766
7930 1 1 0.727855 1.19111 1.38095 2.28661
7188 1 1 0.1319 2.74829 2.93459 0.488475
1926 1 1 0.30853 15.3446 4.61956 0.893422
7938 1 1 1.49123 1.92413 1.54929 1.90503
7934 1 1 4.24164 17.6902 2.06935 1.0634
489 1 1 2.13738 2.33897 2.26978 1.93319
3146 1 1 3.50129 0.342259 2.77586 1.18999
1930 1 1 5.60348 18.0242 3.73955 1.76249
1140 1 1 6.35792 18.1802 2.52672 0.771673
7122 1 1 3.1164 18.2697 4.57708 0.59804
1331 1 1 5.07104 17.3322 4.38949 0.684057
6321 1 1 4.67663 1.17957 4.81264 0.438128
1168 1 1 7.47024 18.3243 2.90508 0.07434
497 1 1 8.10915 0.35697 3.13151 0.900686
566 1 1 7.10137 0.122066 1.61316 2.122
1658 1 1 9.52426 18.5796 4.98564 5.39771
700 1 1 10.5199 2.30881 3.07133 0.52545
1708 1 1 9.26611 0.314218 3.0722 1.95779
906 1 1 11.5267 1.81397 2.84338 3.44612
2106 1 1 12.6025 0.688088 1.45189 0.387403
871 1 1 13.5376 0.938978 6.11233 1.464
990 1 1 12.7696 17.4888 3.81929 0.450577
787 1 1 1.60359 17.4473 4.09299 1.32958
982 1 1 16.6898 3.24645 3.41483 1.21019
7950 1 1 11.3036 18.2298 3.45541 2.30921
1223 1 1 15.5028 1.67065 3.3543 2.50668
894 1 1 15.3554 0.526431 4.10718 1.47901
1265 1 1 16.603 1.23477 2.82853 0.893125
915 1 1 3.82287 1.57806 3.37283 0.928966
1279 1 1 3.14914 0.356316 3.78276 3.69946
611 1 1 1.99505 0.109673 4.49659 2.29638
1543 1 1 5.12216 1.5231 2.78347 0.158705
1208 1 1 6.71099 2.52669 4.11878 0.586909
886 1 1 7.75942 1.46571 6.39721 2.32049
96 1 1 8.86084 1.05867 4.34424 1.88617
2103 1 1 7.86968 2.19449 5.34654 0.975591
553 1 1 12.9989 4.7084 2.38878 2.09054
640 1 1 13.0302 18.1914 2.90257 2.62433
409 1 1 13.0941 1.61687 3.36234 0.889116
387 1 1 13.9113 2.41322 4.96646 1.3436
1229 1 1 17.3617 1.99864 5.24164 1.2025
7246 1 1 14.744 18.3174 3.35536 0.290008
7914 1 1 16.1655 4.19547 3.2284 1.44616
816 1 1 0.378326 6.30255 4.62981 1.74612
1338 1 1 18.6391 5.52143 4.15189 0.887046
1805 1 1 1.78451 2.76351 5.95949 1.95249
7284 1 1 2.58574 5.00559 2.81074 0.805356
509 1 1 2.78309 4.18476 2.37412 1.94536
1281 1 1 2.17148 3.20904 5.10177 1.37261
7123 1 1 2.85825 4.05743 3.54614 0.536176
56 1 1 8.03115 3.18462 3.66702 1.87213
585 1 1 8.40875 4.76913 3.413 1.49876
528 1 1 7.58045 4.95592 5.1187 1.55177
2318 1 1 7.23529 5.05758 3.57719 0.857695
7989 1 1 8.08848 1.42945 3.31772 2.90796
177 1 1 9.77955 1.63006 4.16451 0.418867
7685 1 1 7.77068 4.2174 2.79623 0.832951
1661 1 1 11.5878 4.62759 2.1112 0.73709
1826 1 1 12.051 4.75873 2.95945 0.780664
7725 1 1 16.7605 4.29871 5.38729 1.47943
7155 1 1 13.8232 4.4411 1.55242 1.90942
1203 1 1 13.6915 5.18591 2.90953 0.464666
1239 1 1 15.0071 3.36999 2.47167 1.11505
7468 1 1 16.0186 3.31829 2.11177 0.471445
148 1 1 17.3371 2.80311 4.20008 0.243677
1591 1 1 17.7711 2.06561 1.9225 3.04965
3932 1 1 17.0737 3.86716 7.09444 1.45521
6396 1 1 0.921071 5.70041 3.88348 2.31331
15 1 1 0.945936 4.56472 3.7616 3.56244
62 1 1 5.68803 3.44087 3.8576 0.972173
7532 1 1 6.33226 6.02593 3.73432 1.83608
691 1 1 7.40103 6.87266 4.59794 3.63399
1648 1 1 9.49379 3.70445 3.31224 1.13634
122 1 1 10.4673 3.35897 3.19367 0.278928
2455 1 1 11.3235 4.81639 4.53853 2.81986
1698 1 1 13.2713 5.9983 4.24436 1.48186
7422 1 1 13.944 4.52371 5.15558 0.204065
6541 1 1 16.5942 5.7807 5.32452 2.50854
2075 1 1 12.5247 3.54807 5.35147 0.613516
2392 1 1 15.5075 5.99539 3.94114 0.537536
581 1 1 14.5964 4.4633 3.78119 4.73831
486 1 1 15.2909 6.16152 1.39192 2.26957
102 1 1 15.387 8.05155 2.70513 0.62393
235 1 1 17.2421 5.94889 2.31987 5.78998
6533 1 1 2.79473 6.49902 6.21649 2.56122
7456 1 1 3.87041 7.23637 5.63661 1.23556
523 1 1 18.1159 4.54209 5.64609 0.961111
548 1 1 1.95096 4.83865 4.26067 0.73531
1883 1 1 3.14357 5.75855 3.4658 0.668936
6767 1 1 4.82577 6.71174 2.85397 0.116352
7921 1 1 5.77141 4.9624 2.31671 0.761382
1177 1 1 5.73885 7.75707 5.46859 0.931489
7904 1 1 5.70119 5.954 2.41623 3.79118
455 1 1 10.2817 4.01762 3.94 2.02409
980 1 1 11.312 4.07536 3.11457 0.159764
1833 1 1 14.5574 5.68509 2.65112 1.78896
2017 1 1 14.6116 5.43556 3.79897 0.900616
591 1 1 15.9637 7.51023 1.29429 1.83223
1715 1 1 17.3977 6.37397 4.69096 0.963731
928 1 1 18.7889 7.40942 3.06519 0.4098
1637 1 1 17.8081 7.83125 4.96499 0.930473
1399 1 1 0.500969 8.24612 4.12423 1.21898
7795 1 1 18.6278 8.95125 4.34501 4.90332
134 1 1 4.09373 7.96587 3.48354 4.28829
1864 1 1 5.89397 6.9182 3.07163 2.56167
1334 1 1 8.12217 8.32499 6.30362 3.41179
7459 1 1 9.05551 10.9914 3.09127 1.49804
7322 1 1 8.08051 6.0008 4.02653 1.1363
1927 1 1 12.9225 5.62301 3.31743 0.203579
5690 1 1 13.8585 7.69801 3.61536 1.27345
277 1 1 11.9021 8.30801 0.811357 2.84055
648 1 1 12.5209 8.0115 3.88208 0.793772
985 1 1 11.3472 7.52179 1.93135 4.88551
610 1 1 12.2448 9.3997 2.36896 0.602881
488 1 1 14.2563 8.30553 6.18927 4.35593
5812 1 1 16.3612 6.30137 3.5402 0.866992
1537 1 1 14.8114 6.46288 3.29982 2.32843
960 1 1 16.0188 6.94113 6.50265 2.62958
913 1 1 16.4912 8.20803 2.40499 0.171733
114 1 1 2.30589 9.01375 4.39218 1.08582
2239 1 1 3.70277 8.93102 6.25989 3.49146
959 1 1 2.47349 11.3248 3.68804 0.548529
996 1 1 1.58181 9.10156 2.17145 0.302868
1863 1 1 4.96219 8.77122 3.24667 0.0592301
667 1 1 1.96856 8.81443 5.97217 0.962177
1415 1 1 6.66204 9.0787 2.83476 0.608946
344 1 1 6.64567 9.47403 4.0969 1.02492
1475 1 1 7.29905 11.8848 3.00151 0.444082
1217 1 1 6.69361 7.39634 3.39201 0.262685
2874 1 1 7.40641 7.82792 4.14731 0.821049
1781 1 1 9.46312 9.67286 1.40534 2.17302
7573 1 1 10.4493 10.1429 3.74908 3.19357
183 1 1 11.2944 7.745 3.07085 2.04432
7138 1 1 11.6436 12.4865 3.46078 1.01415
1906 1 1 14.2821 8.99799 3.48039 2.90555
2320 1 1 13.9129 11.2985 1.47898 1.13505
738 1 1 11.8697 8.5432 3.23292 0.337065
240 1 1 15.8278 8.22315 4.14655 1.33629
1942 1 1 15.859 10.9294 6.8817 0.205193
6561 1 1 17.6964 10.8488 3.68829 1.07887
1113 1 1 1.14395 8.82337 5.35968 1.25106
1870 1 1 17.6108 7.93365 6.35616 1.20065
336 1 1 17.5866 10.293 2.03506 0.463548
1793 1 1 0.612235 9.54902 5.69194 2.40003
1272 1 1 3.07626 10.9729 5.15652 1.92281
1728 1 1 1.37464 12.4028 4.07969 3.35362
369 1 1 4.15739 10.0753 1.8259 3.08166
243 1 1 2.50915 12.0682 5.01701 2.04186
2311 1 1 4.25625 10.1017 2.89583 0.447769
2980 1 1 7.10859 9.86546 4.86622 4.97206
970 1 1 4.06453 10.5051 5.89218 2.19945
1211 1 1 7.23847 10.2113 3.19781 2.17433
7538 1 1 9.82438 11.4299 3.78688 1.75089
7798 1 1 8.29234 10.8968 4.93208 0.66644
378 1 1 10.0403 12.5422 4.04388 0.904019
221 1 1 9.41662 12.738 3.10112 4.34101
6896 1 1 8.82787 10.0505 4.86667 1.56897
1487 1 1 11.754 10.0722 3.2472 0.949392
1100 1 1 11.3158 13.296 4.04229 0.973955
1965 1 1 16.2164 11.6584 5.58535 0.275667
1072 1 1 14.253 10.0939 3.23021 0.602313
6913 1 1 16.5611 10.7925 5.03923 1.34833
186 1 1 14.8021 10.7765 6.73296 0.39211
1130 1 1 0.0329742 10.7254 5.91306 0.579526
2798 1 1 0.812898 10.5088 3.93765 0.314906
2151 1 1 16.8514 9.98459 3.68218 2.05378
6719 1 1 18.5323 6.75574 3.96755 1.63025
6563 1 1 17.5174 12.543 3.45711 0.536915
2313 1 1 18.7211 13.6357 3.90253 0.109511
300 1 1 1.51252 11.7245 3.22201 2.33012
203 1 1 3.71724 10.5183 3.77821 0.31614
2357 1 1 3.99268 12.3703 36.6159 0.967463
7474 1 1 3.34944 11.3652 3.13803 1.7801
163 1 1 6.40713 11.0361 3.05138 3.51183
765 1 1 4.732 10.5535 3.91679 0.225709
1163 1 1 4.39801 12.279 4.60666 1.34672
1912 1 1 7.60633 12.9815 5.80469 2.66075
201 1 1 10.7969 11.0733 3.58446 0.888933
627 1 1 15.0957 12.5887 2.48166 3.90114
7004 1 1 12.8979 12.7498 2.95754 0.647074
1438 1 1 12.6805 11.0628 3.94666 2.51845
1175 1 1 12.3908 13.3407 5.15456 0.568119
678 1 1 14.0189 12.0899 2.0991 1.11786
1250 1 1 12.7763 10.0642 2.85436 2.01603
1590 1 1 18.3006 14.5383 3.64633 0.432698
622 1 1 0.060245 10.908 3.25964 1.59644
1184 1 1 16.291 12.6081 3.32975 4.6468
1079 1 1 0.614777 11.7276 3.69408 3.9746
435 1 1 16.4281 13.3517 4.20965 0.29004
7670 1 1 17.0668 12.6622 1.50469 1.92756
962 1 1 0.378674 12.7284 3.42667 0.0803642
878 1 1 0.81678 14.5893 4.14482 0.528651
6531 1 1 2.5113 14.7444 2.76838 1.01215
7847 1 1 1.35979 13.0957 2.33026 1.94709
7212 1 1 0.30436 13.4054 5.07919 0.175262
1895 1 1 2.52843 12.5407 3.75771 2.77676
1561 1 1 4.63416 14.2843 1.62018 0.457873
7085 1 1 8.21179 11.8972 5.83579 0.827557
795 1 1 6.75205 13.998 5.56496 3.67204
292 1 1 7.79549 11.8169 7.35201 0.305376
6536 1 1 7.07 13.8673 3.15011 0.918515
381 1 1 9.47412 14.9431 2.39773 3.99104
342 1 1 9.66965 14.4197 4.21188 0.322792
2224 1 1 11.9115 13.3981 2.40238 1.03522
1676 1 1 14.4438 13.3627 0.535516 3.37743
1986 1 1 18.313 15.7783 5.58711 0.963497
7993 1 1 16.3504 12.5125 36.657 0.0275448
1024 1 1 15.8989 14.163 3.1303 1.17248
1514 1 1 16.7952 13.1739 2.43152 1.8261
7480 1 1 17.7991 13.8842 6.06482 1.97398
1116 1 1 2.5041 18.6558 1.9756 0.0100362
7863 1 1 3.1195 13.8413 3.21497 0.260229
1146 1 1 0.625514 15.6028 0.205345 5.01517
1486 1 1 4.1093 16.0186 3.35459 1.43432
487 1 1 6.6133 14.8119 3.24416 1.65096
1337 1 1 5.38237 16.3368 2.94748 2.10805
1128 1 1 6.37252 15.2897 4.73415 0.396406
961 1 1 8.85159 15.4174 1.4492 0.820001
7489 1 1 7.19329 15.1697 1.23475 1.4609
1505 1 1 8.82975 15.0253 3.17897 0.737129
1147 1 1 11.2256 14.4 4.03253 1.88505