ITEM: TIMESTEP
100
ITEM: NUMBER OF ATOMS
8000
ITEM: BOX BOUNDS pp pp pp
0.0000000000000000e+00 1.8820720577620570e+01
0.0000000000000000e+00 1.8820720577620570e+01
0.0000000000000000e+00 3.7641441155241139e+01
ITEM: ATOMS id mass type x y z v_temp
1634 1 1 0.548564 0.892446 2.18064 2.13879
1142 1 1 18.4278 18.5725 1.0782 0.623171
7604 1 1 2.33068 0.0900878 0.878679 1.2619
7210 1 1 3.49163 0.0963974 0.932742 0.643496
318 1 1 2.37432 0.348499 1.86393 0.850833
287 1 1 5.12273 1.13775 36.9851 1.18736
7226 1 1 4.97207 0.642675 0.369994 0.92863
6076 1 1 6.3908 1.13072 0.504627 2.5983
7503 1 1 5.53465 1.34488 1.07902 2.0745
6017 1 1 10.1181 1.49968 0.516985 0.131054
7535 1 1 9.33754 0.312336 0.709518 1.02769
2020 1 1 10.4518 0.524394 0.315448 0.354674
696 1 1 11.5849 0.56366 0.175336 0.5894
383 1 1 12.8363 0.883676 1.4773 0.741547
640 1 1 13.0464 1.25792 0.28535 1.23138
7930 1 1 14.6435 18.6691 0.850072 3.95385
554 1 1 16.4568 18.6243 37.5013 1.2533
7471 1 1 17.457 1.78555 37.1471 1.4579
1198 1 1 0.0707808 1.24215 1.0128 1.82607
576 1 1 1.09661 1.53602 0.935395 1.11494
115 1 1 0.0254859 1.37095 37.602 0.642998
816 1 1 2.09908 2.90254 0.863988 0.656058
6995 1 1 3.71406 1.89859 1.29211 2.34512
2126 1 1 5.05857 2.60196 1.37961 2.1355
172 1 1 4.7756 1.91045 0.249282 1.92222
5756 1 1 6.97663 2.81536 37.1038 2.35023
6659 1 1 7.57406 2.46748 1.70753 0.835142
1206 1 1 8.38466 1.2556 0.804152 5.36398
7660 1 1 7.41437 2.26384 0.498306 2.96234
2305 1 1 10.1167 2.73449 0.975018 1.43663
7725 1 1 11.0358 1.64966 0.690132 4.67802
6691 1 1 11.1592 2.78352 0.198095 0.684462
1308 1 1 12.3571 2.73285 1.30573 3.47892
1269 1 1 13.8251 1.35108 1.47518 2.87023
6873 1 1 12.0255 1.91593 0.0124108 0.194945
7830 1 1 14.3915 0.852467 0.879853 1.11676
7423 1 1 13.5592 2.60252 0.770062 0.134389
1344 1 1 15.4784 2.48972 0.977879 0.654125
7998 1 1 16.6618 1.98828 1.62833 0.0314563
18 1 1 17.6843 3.00645 1.06878 4.71353
47 1 1 0.166759 4.36498 1.30371 1.84891
366 1 1 1.51038 3.38053 0.214271 1.13476
1481 1 1 1.36832 2.58709 1.88313 0.874569
7456 1 1 2.21374 4.77326 1.83354 0.284101
7697 1 1 1.77862 3.94257 1.25216 0.666848
402 1 1 3.50935 3.90783 0.211118 1.91661
879 1 1 4.43643 3.01273 0.59308 3.62003
7667 1 1 5.56378 3.38581 37.5053 3.42689
464 1 1 7.85081 4.57152 37.4737 0.94229
543 1 1 9.25042 4.10618 0.308533 3.06648
2348 1 1 8.75832 4.19399 36.8832 4.62948
7010 1 1 13.1693 3.44399 1.30881 0.301882
73 1 1 11.5476 4.38243 0.683589 0.11722
151 1 1 16.7378 3.84162 0.721447 0.941124
1315 1 1 15.7754 3.40696 0.134013 0.805445
6648 1 1 0.153952 3.10703 1.16162 1.36407
762 1 1 -0.0128028 4.82246 0.344492 0.375877
791 1 1 0.755377 4.33255 37.2239 2.15278
7980 1 1 0.640117 5.46275 1.17936 3.39088
802 1 1 2.14256 4.63489 0.359781 0.926796
7879 1 1 3.62041 5.03331 1.0364 1.0829
7631 1 1 4.92169 4.73286 0.82225 0.317338
548 1 1 5.93803 5.33412 1.59746 1.46911
217 1 1 6.72833 4.71762 0.463896 3.66997
1076 1 1 7.75648 4.67227 0.953071 0.712257
945 1 1 7.5756 5.57938 0.326349 1.62873
697 1 1 9.05803 5.57027 0.334612 1.00786
1330 1 1 11.3954 5.78108 0.93253 0.886096
1380 1 1 14.1401 4.76254 0.575752 3.21252
7911 1 1 15.7347 4.75902 0.44025 2.50053
2160 1 1 16.3752 5.51368 0.828733 0.58586
7937 1 1 17.2125 5.97141 0.356531 1.80426
1713 1 1 17.6835 4.57943 0.0683774 0.383044
924 1 1 0.402133 7.63919 0.520488 3.69184
34 1 1 18.5394 6.03067 0.273382 2.61764
6762 1 1 1.65924 7.84212 0.909623 2.84578
1158 1 1 2.05796 6.3724 0.749409 3.98863
997 1 1 3.7753 6.28105 1.20364 1.58231
645 1 1 3.71284 6.44606 0.0473009 0.703056
930 1 1 5.19459 6.33612 37.5557 3.11481
568 1 1 5.64988 7.40788 1.02783 6.08973
7748 1 1 7.87658 6.67494 1.44257 1.65209
7921 1 1 7.29469 5.80996 1.41419 0.171185
5854 1 1 8.3099 6.03447 37.4486 1.22866
6669 1 1 11.5482 6.95996 1.42886 2.50234
6497 1 1 10.5396 7.48571 37.4997 1.44397
7420 1 1 10.4389 6.53152 0.293112 3.49161
214 1 1 12.3968 6.1059 1.07442 0.560683
721 1 1 12.5516 7.53591 1.10845 1.66778
181 1 1 12.7194 5.70477 0.0252457 1.11985
193 1 1 13.2624 6.96987 1.61792 0.226715
7972 1 1 15.8698 7.0125 0.612127 1.40909
1359 1 1 15.1205 5.85325 0.961814 2.0089
7641 1 1 16.7331 6.52872 1.01618 1.10538
1318 1 1 1.50738 8.06223 1.94226 0.376243
6533 1 1 0.298377 8.10419 1.48552 1.00936
7351 1 1 2.94672 8.06494 0.125101 1.32096
7657 1 1 1.09575 8.76196 0.624592 1.84948
925 1 1 3.80161 7.3607 0.68134 3.21589
6235 1 1 5.02359 8.145 1.12345 1.79368
331 1 1 4.87541 7.32541 0.276969 1.01564
7958 1 1 7.25857 7.90353 0.784224 0.576377
178 1 1 6.51524 8.18949 37.5791 1.14791
7335 1 1 8.45098 8.38333 0.849145 1.87086
5813 1 1 7.54043 8.73769 37.2919 3.92284
6538 1 1 9.4437 7.76741 0.83273 0.255038
461 1 1 13.1189 9.06214 37.4343 3.43354
7348 1 1 14.551 7.34783 0.17483 0.47069
6705 1 1 14.9233 8.49709 0.810869 0.55538
498 1 1 14.823 6.99699 2.04895 1.83229
7851 1 1 15.5022 8.84339 1.70469 2.8232
7800 1 1 16.7498 8.41351 0.898848 0.529629
230 1 1 17.8457 8.24613 1.76418 1.23995
7734 1 1 18.684 9.58726 0.40525 3.07413
1637 1 1 1.17542 8.98958 1.84591 1.30019
6987 1 1 4.5031 9.42163 0.860373 0.0197988
7791 1 1 3.80098 8.50106 1.38116 0.596286
5753 1 1 5.67849 9.2793 0.937702 0.865457
6566 1 1 5.93982 10.8164 0.765026 1.85166
1790 1 1 8.41961 9.65002 1.23137 0.704533
3250 1 1 9.2165 10.955 37.5141 2.76256
1038 1 1 8.34862 9.11501 0.142098 0.14121
570 1 1 10.2866 8.45974 0.139199 1.26811
7943 1 1 11.8096 9.69484 0.799619 0.694047
2177 1 1 10.4864 9.60422 0.855727 0.937777
86 1 1 13.732 10.0324 37.4527 0.391572
7979 1 1 14.0748 8.7078 1.16906 2.34143
79 1 1 15.6807 9.32268 0.199846 0.280877
6241 1 1 15.7388 9.9087 1.19296 2.1024
648 1 1 14.4881 9.53933 0.389096 1.71721
736 1 1 16.622 9.36553 1.21489 2.56301
1036 1 1 17.5154 10.6085 0.0296413 1.59317
884 1 1 17.607 8.99459 0.907982 0.870494
340 1 1 1.29159 11.8017 0.104376 0.256268
1350 1 1 1.53948 11.6077 1.60347 1.04576
6578 1 1 3.3294 9.68498 1.3249 2.87773
1172 1 1 2.91783 11.0743 0.129663 1.87977
639 1 1 3.99235 11.4536 0.436667 0.179124
7891 1 1 7.76166 11.6198 1.28522 1.56409
7002 1 1 11.1923 10.5361 0.602411 0.433743
1542 1 1 10.1962 10.6807 0.401051 0.161097
6536 1 1 11.3464 11.4905 37.5578 2.67327
7156 1 1 13.3818 11.3983 0.921981 0.392709
7452 1 1 14.2508 10.7892 0.260675 1.91604
7635 1 1 15.1336 10.581 0.819697 2.49591
379 1 1 16.0757 11.2742 0.69236 0.42228
1074 1 1 17.8024 11.4235 0.771074 0.571546
7836 1 1 0.377534 10.5876 0.523665 1.08683
7863 1 1 1.71615 13.2608 0.519361 0.512904
7446 1 1 -0.00692382 11.7489 0.702121 2.59188
6646 1 1 2.10989 12.1523 0.889962 0.922264
8000 1 1 4.27213 12.7531 0.325948 0.607991
7056 1 1 3.15551 12.6176 0.784334 1.27718
7621 1 1 4.86395 11.6068 1.10638 2.02522
6252 1 1 5.94658 11.9128 0.709904 0.762322
532 1 1 6.54998 10.9272 37.5889 2.28818
7065 1 1 7.48202 12.4032 0.499841 1.01197
7457 1 1 11.1164 11.6901 0.908054 0.576881
1178 1 1 10.1737 13.223 1.55904 0.970284
7704 1 1 11.5301 12.6623 1.57087 1.33111
6699 1 1 13.13 13.0041 1.23372 0.515601
1976 1 1 13.983 12.1188 0.794724 0.262797
57 1 1 16.0293 12.0934 0.154338 0.665739
234 1 1 17.0137 12.4858 1.19593 1.65866
7189 1 1 17.9084 12.492 0.148872 1.59923
7847 1 1 2.67643 13.6682 0.600904 0.0890564
6243 1 1 4.06438 13.971 0.349802 0.225985
7051 1 1 4.32509 13.5019 1.19089 0.22329
7610 1 1 5.92234 14.1762 1.02555 0.627363
1081 1 1 8.43396 13.9753 0.5023 0.627639
1144 1 1 7.03226 13.2538 1.48239 0.793857
6898 1 1 7.24277 13.5374 0.552899 1.92315
67 1 1 8.84399 12.5791 1.12955 0.410219
38 1 1 9.54227 13.4223 0.605542 0.571168
377 1 1 13.0594 13.8898 0.917431 0.137172
501 1 1 14.1629 13.2829 0.85389 0.788281
7826 1 1 17.137 13.5037 0.0622339 0.650536
7483 1 1 15.7939 12.9208 0.704226 5.97076
7052 1 1 17.0001 14.2168 1.4379 3.69302
579 1 1 18.2365 14.448 0.857279 0.197608
634 1 1 0.868369 13.8063 0.421867 2.408
962 1 1 1.9526 14.0068 1.4331 0.40163
704 1 1 1.82197 15.8925 0.89974 2.79997
1529 1 1 3.6979 14.9968 0.592677 1.32967
6321 1 1 4.46851 15.7018 0.991657 0.33674
203 1 1 4.85839 14.6204 1.08185 1.10332
154 1 1 5.67404 15.2761 37.1311 0.564472
734 1 1 6.79747 15.1734 1.28851 0.530243
6379 1 1 7.53611 14.4076 1.12242 2.48941
1908 1 1 10.4545 15.585 1.34936 0.856313
7569 1 1 8.37097 15.4355 0.541848 1.02293
227 1 1 10.8215 14.767 1.84031 3.03737
1134 1 1 11.6765 15.9075 0.768277 0.834751
22 1 1 13.3385 16.0331 1.22215 2.52363
1143 1 1 14.2654 15.1725 0.832077 1.68223
1474 1 1 15.256 14.6264 1.28446 0.0989373
7548 1 1 16.4921 14.2551 0.502172 1.67287
668 1 1 15.5232 15.2512 37.5776 0.307441
559 1 1 0.399617 15.1567 0.979719 2.40347
2134 1 1 2.07099 16.8613 37.4501 0.206035
311 1 1 2.43303 16.8168 0.907116 0.222307
7934 1 1 3.27757 16.2907 0.400218 1.79073
439 1 1 3.5926 16.1754 1.65006 2.78031
7767 1 1 4.79426 15.9481 -0.0517322 1.85984
399 1 1 4.71041 16.8092 1.27244 0.420982
7214 1 1 5.88438 15.3404 0.899737 0.757495
7180 1 1 6.76703 15.3818 0.120271 0.224221
6835 1 1 6.66177 17.0484 0.78439 0.817575
7206 1 1 7.43027 16.2169 0.78934 2.62763
7616 1 1 8.95935 16.9634 37.2986 0.910729
841 1 1 9.42997 17.2809 1.19722 0.103047
7736 1 1 9.91483 16.721 -0.000724386 0.297334
7779 1 1 10.9324 16.6001 0.952602 0.258018
2343 1 1 12.2899 16.7134 0.392495 0.42739
1916 1 1 13.8695 16.426 0.442654 3.06043
6913 1 1 15.2439 15.8063 0.808445 3.71272
2038 1 1 15.607 16.431 0.043324 1.67841
7855 1 1 16.2177 16.1368 1.98937 2.90852
1042 1 1 17.378 16.5464 0.915169 0.157427
7999 1 1 17.9644 16.3553 37.6054 4.19291
1569 1 1 18.6921 17.3892 0.97333 1.03205
7265 1 1 2.74094 17.8998 0.806835 0.775381
332 1 1 3.27399 18.1328 37.4758 0.158282
6777 1 1 3.02829 18.2203 1.94139 3.17168
6866 1 1 5.56898 0.311109 1.5084 0.646988
7267 1 1 5.13683 17.541 0.650667 0.621902
1729 1 1 7.16374 17.5903 1.82412 4.45009
43 1 1 6.48996 18.3569 1.65533 2.24094
7581 1 1 6.47761 18.0767 0.320925 0.047646
7678 1 1 7.52484 0.258062 1.38744 0.775805
1895 1 1 7.56642 17.6897 0.815871 0.939468
708 1 1 9.78645 18.256 1.17249 0.272998
7961 1 1 11.2218 18.4105 0.702112 2.49635
7705 1 1 12.3557 17.5283 1.27208 0.805929
356 1 1 12.7039 17.6086 37.3643 0.418872
6636 1 1 14.6014 17.4521 0.874142 1.90598
343 1 1 13.9328 18.155 1.34251 4.95194
6723 1 1 15.566 18.0721 0.906443 1.15673
7088 1 1 17.0348 17.6015 0.27874 1.77248
3499 1 1 17.4997 0.448021 1.2038 2.86192
7261 1 1 1.30563 18.6885 1.51178 4.26336
489 1 1 1.90392 0.834458 2.59735 2.27904
1168 1 1 4.14019 1.09336 2.45233 0.742615
445 1 1 4.3368 0.318131 1.56491 0.293508
1930 1 1 4.86327 18.3355 3.44433 3.14453
1257 1 1 5.59803 0.569506 2.64484 2.64158
497 1 1 6.4947 0.306757 2.91788 0.459414
89 1 1 8.12442 0.585855 3.08838 1.67778
1208 1 1 7.05512 0.867121 2.08671 0.544196
7785 1 1 8.31408 0.946793 1.93696 2.50789
505 1 1 10.9794 1.18521 2.63947 0.897243
7745 1 1 9.93416 0.31298 2.03684 0.288319
1339 1 1 10.7792 1.18092 1.63686 1.63625
677 1 1 11.8476 0.898598 1.34954 0.853999
700 1 1 12.8738 0.23169 2.5342 0.664615
31 1 1 15.9237 1.43547 1.25034 5.36839
7478 1 1 14.9822 0.00208759 2.21214 0.294399
787 1 1 15.6575 0.342402 1.27105 1.85052
351 1 1 17.1866 0.462752 2.44021 3.66388
7647 1 1 18.4622 0.393803 2.4173 0.946779
1718 1 1 0.947437 1.83853 2.43882 1.62472
1766 1 1 2.03809 1.69189 2.12401 2.741
547 1 1 2.65331 2.37135 1.4733 0.747643
936 1 1 3.11517 1.83042 2.55714 0.753095
2026 1 1 5.06715 1.7492 2.65127 0.684447
569 1 1 4.53279 1.37711 1.31027 1.34447
566 1 1 6.0338 1.80207 1.7392 0.622395
633 1 1 7.48019 1.47018 1.35413 1.37639
886 1 1 8.30341 2.89751 3.01253 0.713869
593 1 1 10.4501 2.47993 1.88595 0.366863
173 1 1 9.53594 1.35306 2.02904 0.150833
7332 1 1 8.86465 3.1299 1.89198 0.732129
21 1 1 12.7692 2.26517 2.07878 0.991994
7155 1 1 12.7148 2.69696 3.11104 0.331193
7669 1 1 15.6484 2.15366 2.06433 0.198299
1020 1 1 13.8858 2.1653 2.57168 2.65343
859 1 1 15.3441 1.08473 2.16616 0.511079
7549 1 1 16.5661 3.00412 3.18255 1.81369
1348 1 1 17.4273 2.33276 2.50965 0.0930085
7440 1 1 17.8672 1.38524 1.99562 1.72492
7903 1 1 0.178405 3.53101 2.14759 0.460677
7795 1 1 1.54154 5.39995 1.95562 7.3867
7284 1 1 3.88166 3.33686 2.50743 1.14941
6767 1 1 5.38055 3.81587 3.06598 1.34731
835 1 1 5.47567 3.56452 0.974684 1.15047
2824 1 1 4.88905 3.82362 2.00275 0.148913
7718 1 1 5.18282 2.9152 2.41953 1.1077
7653 1 1 6.26715 4.29692 1.38467 0.913471
7215 1 1 6.97408 3.86589 2.28349 0.965091
623 1 1 7.99864 4.13722 1.92839 2.18025
1416 1 1 7.8681 3.70674 0.845603 0.750646
7666 1 1 8.99427 3.5779 3.11603 0.689644
492 1 1 11.1283 3.39363 2.42834 0.412237
7387 1 1 11.1187 3.5322 1.03392 1.19812
6541 1 1 14.5677 3.20692 2.45205 1.45647
7246 1 1 15.9808 3.34084 2.29695 0.216897
7938 1 1 16.6046 4.30132 2.49048 0.512156
651 1 1 16.5357 3.06998 1.53523 0.465721
7844 1 1 17.2857 4.89259 1.09362 1.81296
6975 1 1 1.18952 5.57168 3.15968 2.05724
5621 1 1 0.609172 4.62076 2.27819 0.387456
6396 1 1 0.451744 5.86507 2.14399 0.748215
7659 1 1 2.43105 5.45667 2.64371 1.17739
1237 1 1 3.70003 4.43743 2.45567 2.30225
15 1 1 3.9611 5.64215 1.97979 1.52468
7251 1 1 5.05558 4.88205 1.73648 1.37777
7924 1 1 5.78062 5.38013 2.5828 1.46779
661 1 1 6.61911 5.07493 3.12898 0.681864
7532 1 1 6.82529 5.0315 1.98802 3.95262
585 1 1 7.81925 4.4855 2.77916 0.297314
934 1 1 9.23942 4.70232 2.4854 0.236202
6703 1 1 9.3761 3.95299 1.48802 0.545587
1369 1 1 9.97535 5.69979 0.847033 0.587891
91 1 1 11.7613 4.64003 2.85109 0.418811
528 1 1 10.4712 5.48928 3.0153 1.31621
985 1 1 12.2559 5.12236 1.51696 0.180735
387 1 1 13.7443 5.40229 2.32925 2.19442
1473 1 1 15.4022 5.05453 1.78809 0.108767
271 1 1 14.6234 5.7928 2.00447 1.51351
511 1 1 16.0445 4.13019 1.41925 2.85571
966 1 1 17.9954 4.18315 1.86734 3.89702
914 1 1 16.5929 5.36121 1.87286 1.50394
7432 1 1 18.4732 5.07832 1.6943 0.666798
7966 1 1 1.54401 6.57583 2.77292 2.40433
206 1 1 0.34215 7.07336 1.52314 2.33235
7967 1 1 1.92995 6.89712 1.78081 0.504284
442 1 1 3.71183 7.71097 2.70863 2.50697
7944 1 1 4.21828 6.78953 2.17007 1.3699
7803 1 1 4.81311 6.06504 1.59408 1.53814
1177 1 1 5.64511 6.61501 3.02644 0.557449
6136 1 1 6.51403 6.445 1.9966 0.526213
7663 1 1 8.17253 5.69649 1.88251 0.953952
7138 1 1 7.41588 7.187 2.55142 1.14118
7904 1 1 9.32276 6.47528 1.03358 0.59824
1051 1 1 9.16537 5.82663 2.38889 0.206734
7422 1 1 10.8689 6.64572 3.12441 4.13138
469 1 1 11.5624 5.69373 2.20246 2.11303
7611 1 1 12.6032 5.37824 2.58213 0.80127
188 1 1 12.0186 6.7612 2.53382 1.46589
1329 1 1 13.3896 5.82539 1.37453 2.43589
5812 1 1 13.8873 6.46672 3.48845 0.371009
35 1 1 15.9481 6.32704 1.61217 0.706425
1377 1 1 13.517 6.54628 2.52899 1.66029
2197 1 1 15.4306 5.7983 2.89524 2.32631
7544 1 1 16.8973 5.78946 2.9244 0.158678
223 1 1 17.7269 7.0544 2.66343 2.39726
72 1 1 0.456675 6.66167 2.91611 0.501498
75 1 1 18.3991 6.37875 2.25514 7.39053
2320 1 1 0.710157 7.81199 2.6189 1.14091
5817 1 1 2.99981 6.86573 1.665 1.66949
7322 1 1 6.77214 8.08163 2.49458 3.8767
626 1 1 5.83991 7.77936 3.08768 0.712172
7738 1 1 4.4805 7.91177 2.13575 3.6088
1648 1 1 8.11157 7.91137 1.81553 1.51095
571 1 1 8.42783 8.64077 2.62883 0.701723
5690 1 1 10.0064 7.89557 1.6165 1.95079
2244 1 1 12.1639 8.81627 1.70073 1.64459
122 1 1 10.5472 7.09679 2.114 4.24488
1441 1 1 13.595 7.90893 2.11574 0.391531
276 1 1 15.1687 6.96794 2.95953 1.60341
108 1 1 16.8343 8.59596 1.94427 0.622502
186 1 1 18.5086 8.07646 2.76985 1.20442
1314 1 1 0.793709 10.1592 1.33753 1.85021
1005 1 1 3.94216 9.90074 2.4769 0.246982
7326 1 1 5.67491 8.55827 2.41399 2.11585
1681 1 1 4.80326 8.87881 1.74827 4.30314
6874 1 1 6.8641 10.3195 1.40392 1.34682
1301 1 1 6.53617 9.55366 3.04709 2.40905
10 1 1 5.67422 10.0125 2.80178 0.799381
7459 1 1 7.76683 9.49966 2.07488 1.14291
765 1 1 9.3282 9.86454 2.24135 0.802719
1475 1 1 9.28118 9.14001 1.53544 0.95926
672 1 1 10.4089 9.18625 3.13606 0.19332
6896 1 1 11.0255 10.7874 1.67655 1.2363
7538 1 1 12.1396 10.4131 1.5743 1.10409
1193 1 1 12.5342 7.94283 2.59842 2.54035
7185 1 1 14.437 8.88733 2.16861 0.911182
1906 1 1 14.0213 9.8268 2.25506 0.144659
1426 1 1 14.0985 9.29476 3.18327 1.83884
1478 1 1 15.7444 9.13887 2.609 1.60673
6561 1 1 17.9488 9.11973 3.15608 3.96427
84 1 1 18.2146 10.1848 1.02236 1.08012
1093 1 1 0.617282 10.7685 2.74316 2.62869
300 1 1 0.775174 9.78632 2.51842 1.12021
877 1 1 0.327716 10.866 1.71627 2.47796
970 1 1 4.54723 10.7477 2.88984 0.936862
7482 1 1 2.70513 9.95059 3.01772 1.2252
7805 1 1 3.48677 10.6684 1.98477 0.11879
1211 1 1 5.27977 10.0829 1.75779 1.18335
290 1 1 6.84584 12.0584 2.54719 2.22878
7643 1 1 7.49231 10.925 2.00657 1.73206
691 1 1 8.34906 10.3704 3.00958 3.8119
955 1 1 9.08908 11.3405 1.36977 2.67948
1224 1 1 12.3333 11.1716 1.04255 1.2622
232 1 1 12.2756 10.5821 2.69286 2.38415
7983 1 1 13.9889 11.0743 2.64331 0.678575
296 1 1 14.258 11.1829 1.20092 0.645103
610 1 1 13.1315 10.3028 2.00953 1.36449
2017 1 1 14.986 11.3491 2.11027 1.88054
712 1 1 16.8156 10.4309 1.71719 1.70027
7470 1 1 17.2291 11.7616 2.29766 1.47723
146 1 1 17.9887 10.3727 2.20209 2.71312
2662 1 1 18.1137 11.3338 1.8046 0.134248
1234 1 1 17.9561 12.0932 2.9949 0.841919
7474 1 1 1.9938 12.483 2.01865 2.37267
967 1 1 1.82034 11.6874 2.71688 4.93191
7060 1 1 3.39495 12.5205 1.73316 2.97459
369 1 1 3.01968 11.8842 2.49607 1.55613
7249 1 1 3.79801 12.5082 2.80979 0.478599
325 1 1 6.23349 12.2813 1.69329 1.67238
773 1 1 4.66992 12.299 1.90354 0.187552
453 1 1 6.96054 13.3144 2.56694 3.78286
627 1 1 7.56823 12.4569 2.09927 4.39579
7004 1 1 9.18117 12.9901 2.56548 0.9435
1103 1 1 10.2729 13.6862 2.44633 0.836158
738 1 1 13.3732 12.4296 2.35087 1.70908
286 1 1 12.458 12.2057 1.83676 5.52496
574 1 1 14.6013 12.342 1.8016 4.2441
1107 1 1 13.0383 11.2605 2.03666 3.15237
7512 1 1 15.1558 12.1993 0.992402 0.794672
973 1 1 15.7337 11.8298 2.81776 0.338909
7772 1 1 1.10357 13.6108 1.71925 2.44561
163 1 1 2.65882 13.4296 2.23396 2.07346
1486 1 1 4.12688 13.4587 3.47086 1.99003
7085 1 1 4.01288 13.3922 2.29132 1.75018
584 1 1 4.95057 13.8717 1.89149 0.707287
255 1 1 6.08758 13.4276 2.06983 1.48054
688 1 1 7.54264 13.4058 3.51771 1.66389
1128 1 1 6.87578 14.096 3.0949 5.01093
7139 1 1 7.67725 13.8588 2.16699 0.275465
1912 1 1 8.73746 14.3714 1.41089 0.605132
1139 1 1 9.4327 14.2159 3.22371 0.902698
7545 1 1 11.2125 14.2612 2.87182 0.180542
423 1 1 11.9339 13.4409 3.1436 0.499965
6686 1 1 9.73981 14.3064 1.57635 0.710375
7834 1 1 13.4753 14.6817 1.42866 0.46102
6824 1 1 14.0343 13.654 1.76984 1.64562
7040 1 1 13.3821 13.8993 2.76695 0.568573
6599 1 1 15.2477 13.4364 1.47689 1.76639
389 1 1 14.716 14.3119 2.38438 2.78403
375 1 1 16.6741 13.4452 2.76012 0.802267
7867 1 1 18.3757 12.9411 2.62349 0.174127
1567 1 1 0.0864273 13.4086 1.30101 3.33368
2358 1 1 17.9173 13.9238 2.29029 0.542863
1445 1 1 1.73232 14.8758 1.93054 0.151465
7555 1 1 2.62517 16.1475 2.02349 0.99793
757 1 1 2.72994 15.4564 0.935104 1.89341
1485 1 1 5.02108 15.2762 1.80207 2.19656
815 1 1 6.0515 14.7954 2.04192 1.71158
7926 1 1 6.71396 15.6347 2.64529 1.38624
749 1 1 7.83233 15.4097 2.05747 0.456927
6851 1 1 8.58211 14.3837 2.47365 2.8652
872 1 1 9.10217 15.3526 2.00507 3.22694
7700 1 1 8.61979 16.8034 2.38991 1.50195
7489 1 1 13.3752 15.5614 2.45049 1.49264
256 1 1 11.7884 15.6864 1.88532 0.588781
976 1 1 11.8388 14.1285 2.00282 0.481634
381 1 1 13.6428 15.2109 3.57898 5.73323
273 1 1 15.3161 15.6991 1.87533 0.943123
7787 1 1 16.3706 15.0753 1.57123 0.951314
2367 1 1 17.7749 15.0449 1.70097 1.38676
5999 1 1 0.886785 16.501 1.01228 4.52459
7887 1 1 0.421174 15.8519 1.85725 0.640861
670 1 1 0.278757 16.4156 3.62094 3.61703
7968 1 1 1.98938 16.7785 2.4889 0.630704
1509 1 1 1.43747 15.9385 2.17244 0.615342
6459 1 1 2.75515 17.2592 1.87863 0.578904
1446 1 1 3.54833 16.8153 2.72573 1.82737
1328 1 1 5.68389 16.6873 0.80041 2.52331
7613 1 1 7.59759 16.5248 1.70461 1.63673
3576 1 1 6.50951 16.2867 1.43477 0.838163
292 1 1 7.86894 16.0555 3.15783 0.83828
1582 1 1 9.47404 16.167 2.72198 0.590585
814 1 1 10.6833 17.5559 1.48822 1.99937
7620 1 1 9.22842 16.2864 1.70975 1.0797
7230 1 1 11.0387 17.0607 2.51941 1.08984
1505 1 1 10.1313 17.325 3.36408 1.43223
7149 1 1 13.3234 17.0435 1.74002 2.42009
781 1 1 11.9491 16.4362 3.22269 0.753644
2661 1 1 14.2191 16.109 1.79477 0.771918
2150 1 1 15.4034 16.9607 1.77844 0.416927
629 1 1 17.4549 15.768 2.63904 0.89835
1928 1 1 18.2409 16.8689 1.79777 0.753541
2033 1 1 17.3809 16.9908 2.30318 0.760899
7188 1 1 1.16834 0.181306 2.93621 0.513138
686 1 1 0.289829 17.3285 2.46633 0.204652
7585 1 1 2.08142 18.2556 2.51456 1.29711
1140 1 1 3.33573 18.1705 2.90225 2.58518
1453 1 1 4.79562 17.3302 3.11652 0.771811
487 1 1 5.94506 16.6728 3.19343 1.5622
7754 1 1 5.13991 18.4399 2.22727 1.01654
605 1 1 8.56325 18.4593 2.03629 4.52705
7996 1 1 9.20882 17.5847 2.39344 1.53763
829 1 1 8.46797 18.3715 0.926049 0.603262
450 1 1 10.0912 18.0489 2.56143 0.511952
6027 1 1 10.9565 18.5974 3.03285 1.29016
7987 1 1 11.0504 0.096168 1.92786 1.08304
6673 1 1 12.3669 18.661 1.53609 1.46087
1785 1 1 13.3268 17.0911 2.80665 1.17992
2106 1 1 13.8948 18.6553 2.30976 1.74465
1110 1 1 14.7333 17.6703 2.24226 0.47149
1200 1 1 14.8881 18.2545 3.09329 2.11019
129 1 1 16.5743 18.5777 2.08615 2.78823
788 1 1 17.6468 17.781 1.4079 0.764279
194 1 1 18.3022 17.9631 2.13596 0.641427
310 1 1 0.03126 1.45526 3.74746 0.384418
915 1 1 1.59083 1.00921 3.68884 1.55664
7122 1 1 2.67746 0.163821 3.90328 0.965575
175 1 1 3.27175 0.332133 2.39281 4.22894
1367 1 1 3.98722 18.7823 3.89933 0.396532
7123 1 1 5.56802 1.30347 3.56186 0.421218
1331 1 1 6.3418 1.37768 2.87614 0.780662
7762 1 1 6.10755 0.596613 4.3638 1.77379
293 1 1 7.00649 0.130748 3.71178 1.30356
7964 1 1 8.22685 1.09881 4.16367 1.80125
1658 1 1 9.14129 0.409262 3.47381 1.39646
1749 1 1 10.2414 0.708789 4.23999 1.37642
671 1 1 11.3205 1.02922 3.6142 0.878269
1213 1 1 12.4582 1.20447 3.01411 1.19175
1704 1 1 12.1707 18.5202 3.54226 1.24812
180 1 1 13.6037 1.11505 2.9773 3.09547
906 1 1 14.3167 0.173551 3.25823 0.131806
982 1 1 15.4571 0.302346 3.35821 3.70671
427 1 1 16.4461 0.873705 3.11117 0.360373
7914 1 1 17.6192 1.87851 3.836 0.666183
1205 1 1 18.1624 18.6314 4.06676 2.32174
1265 1 1 0.0648852 2.2338 4.42161 1.86334
1714 1 1 1.13833 1.99125 4.23433 1.5105
1373 1 1 2.46626 2.53954 4.54562 0.281588
480 1 1 3.29447 1.12638 3.83854 0.0357825
656 1 1 4.08085 2.24167 2.76152 2.46484
56 1 1 5.9621 2.18687 3.86981 1.27197
7300 1 1 7.2196 1.63895 3.75667 0.623167
7896 1 1 6.69541 1.77042 5.04093 2.60345
1543 1 1 6.17612 3.08634 3.15067 0.14996
6986 1 1 7.21 2.57692 3.22299 0.84865
96 1 1 8.07191 2.08849 3.7339 0.98109
1852 1 1 7.48116 1.72517 2.67793 1.30536
385 1 1 8.6699 1.5468 2.96754 1.14599
94 1 1 9.96206 1.9197 3.98205 1.94055
824 1 1 10.9962 2.41193 2.87413 1.51154
7989 1 1 11.925 2.22779 3.01697 1.58245
553 1 1 11.6869 2.35467 4.6407 0.612169
100 1 1 13.185 1.73208 3.86917 1.44626
742 1 1 13.794 2.457 4.34222 0.8203
946 1 1 14.2412 1.61412 3.86352 2.08075
1413 1 1 14.8851 2.93111 3.64657 1.71278
314 1 1 16.6517 2.15877 3.68753 1.22391
874 1 1 18.5488 2.79862 3.00819 0.185652
1279 1 1 2.66607 3.65404 3.47167 1.59246
109 1 1 2.56346 3.10543 2.10011 4.51323
3 1 1 3.74644 3.83094 3.60656 1.36238
1202 1 1 4.7764 3.02331 3.42568 1.06757
527 1 1 5.63644 3.77185 4.04779 1.20418
1376 1 1 6.52911 4.12835 3.44895 1.88598
479 1 1 7.30914 4.72786 3.79059 4.44929
1378 1 1 8.80271 3.67384 4.10596 1.95001
2736 1 1 10.0737 2.99796 3.80157 0.704342
3337 1 1 9.32676 2.42997 2.68712 2.29157
7625 1 1 10.132 4.05059 2.96558 1.55447
1664 1 1 11.9579 3.49255 3.03957 1.9062
685 1 1 12.6992 4.30192 3.63349 5.84445
7250 1 1 13.7583 3.174 3.52702 1.53892
602 1 1 16.1658 3.80064 3.84914 0.734036
7950 1 1 17.5674 2.77232 4.1485 1.14544
1239 1 1 17.4712 3.6329 2.93441 1.87206
155 1 1 18.4639 3.38965 4.51152 1.62621
6152 1 1 0.664012 3.9308 4.39031 1.15132
7366 1 1 0.468007 5.2034 4.01569 3.53428
7841 1 1 18.5792 5.31173 2.86122 5.50334
1596 1 1 1.78121 5.62832 4.12409 0.526193
1717 1 1 1.16992 4.59878 3.66207 3.06354
158 1 1 3.05197 5.56202 3.49845 1.4808
1883 1 1 4.56451 5.91201 2.98462 2.33151
580 1 1 4.15757 5.0151 3.45954 0.131328
5739 1 1 8.65193 4.7068 3.63858 2.14955
890 1 1 9.56862 5.02819 3.51449 1.04164
2103 1 1 10.3914 4.08415 3.96676 0.889006
140 1 1 10.7433 5.92011 4.23308 0.416491
281 1 1 11.4473 4.45268 3.86497 0.885403
1262 1 1 12.5542 6.38262 4.01385 2.95369
446 1 1 14.1398 4.45493 3.91769 1.85693
2075 1 1 14.0857 5.39534 4.39377 1.36617
581 1 1 14.212 5.41177 3.26364 0.623993
7468 1 1 15.8639 4.58449 3.17116 1.09448
2432 1 1 15.0912 5.02923 3.91506 1.1929
1336 1 1 16.9523 4.73758 4.68429 0.34145
148 1 1 17.2315 4.87646 3.26475 0.63305
190 1 1 18.253 4.43223 3.33149 3.12612
3586 1 1 18.209 5.56818 4.39267 1.16612
7683 1 1 1.80365 6.75223 3.89332 0.526204
238 1 1 2.77568 6.36368 3.99058 0.53675
729 1 1 4.99439 6.67902 4.57449 0.586389
1754 1 1 3.84815 6.64878 3.63012 2.74703
440 1 1 6.28075 6.22584 3.76586 0.551621
2397 1 1 7.36793 5.84585 2.69402 2.46047
1405 1 1 6.47562 7.02091 4.33448 1.79477
1194 1 1 7.39156 6.02105 3.9834 0.702535
1466 1 1 7.49214 7.23246 3.80156 1.93949
177 1 1 8.75468 5.83362 3.41022 1.72566
575 1 1 9.91507 6.65697 3.69627 0.159524
488 1 1 11.2235 7.12743 3.94651 1.11418
1759 1 1 12.1486 6.45043 5.04459 1.30004
6463 1 1 12.5099 7.55033 4.09431 1.04342
591 1 1 14.9512 6.01428 4.1506 3.32874
7273 1 1 17.1029 6.70822 4.102 1.58962
3565 1 1 15.9062 6.8412 3.70022 3.08587
444 1 1 17.9933 6.77305 3.65189 2.40735
481 1 1 0.0614403 6.44045 4.35723 3.51378
1942 1 1 0.446394 8.81063 2.75865 3.0081
1562 1 1 0.802133 7.2894 3.80202 0.832154
134 1 1 1.63194 7.90442 4.41998 0.916722
875 1 1 1.66951 7.88034 3.23713 1.559
983 1 1 4.46486 7.55594 4.28297 0.751452
131 1 1 3.24141 7.75552 3.91019 1.60654
7862 1 1 5.79475 8.71122 3.62722 1.83629
541 1 1 6.68235 7.96025 3.58424 0.284572
1802 1 1 8.45639 8.38968 4.84307 1.1617
557 1 1 10.8379 6.69535 4.9017 0.426164
1069 1 1 11.471 7.82852 3.01102 1.63786
1781 1 1 10.4042 8.08802 3.82617 2.43703
1422 1 1 13.1743 7.20046 3.15123 1.26197
1833 1 1 14.7898 8.52754 3.36891 1.5664
960 1 1 16.2706 8.21658 2.6833 0.553225
305 1 1 15.8713 7.74003 4.30844 0.808828
1183 1 1 17.4357 7.9831 2.66571 0.330987
1000 1 1 18.0177 7.79285 4.19226 1.12857
1709 1 1 18.0802 6.57028 4.98774 4.16913
2357 1 1 1.30369 9.36485 3.21952 1.39964
2110 1 1 0.709205 9.57644 4.22213 1.97121
1399 1 1 0.970034 8.56386 3.91589 1.31308
1113 1 1 2.2518 8.91149 2.79038 6.33971
7845 1 1 1.65941 10.4147 1.97007 2.65634
114 1 1 3.34693 9.08996 3.25723 3.01444
1917 1 1 3.81004 9.31357 4.31378 0.394326
1280 1 1 4.32015 9.34108 3.17079 0.584489
478 1 1 6.7293 9.72073 4.3534 1.47575
1415 1 1 6.33469 11.2317 2.56872 0.0954086
378 1 1 8.23494 9.25195 3.93213 1.08432
374 1 1 7.93427 8.21168 3.53069 0.859323
7531 1 1 9.22441 9.38784 4.08752 0.216232
1460 1 1 11.3312 9.30507 3.75453 0.468274
641 1 1 14.1538 9.16697 4.49491 6.17594
6875 1 1 16.9014 9.29019 3.44952 0.166066
1870 1 1 18.6314 9.53775 3.81917 0.450409
6719 1 1 17.6898 9.95469 3.90104 0.533092
1276 1 1 1.25194 10.4194 3.38325 0.470751
336 1 1 0.270411 11.622 4.04092 0.175243
916 1 1 1.31755 10.6599 4.83602 2.24005
1863 1 1 2.03712 11.8867 4.1786 0.936682
2311 1 1 1.86244 9.87418 4.0173 0.412834
1728 1 1 3.66054 11.269 3.9288 0.270897
408 1 1 4.96964 11.5715 3.62843 1.49202
1417 1 1 5.89506 10.3385 3.70556 0.631262
365 1 1 5.61836 11.3945 1.93705 1.21819
1465 1 1 6.80205 10.901 4.23015 1.33456
1001 1 1 7.59002 11.3907 3.49489 0.317776
1046 1 1 7.24223 10.2912 2.71177 1.50475
277 1 1 10.1135 10.7926 2.40308 1.50498
64 1 1 8.65367 10.9632 3.74954 0.761649
241 1 1 9.54104 10.3057 3.36045 1.13899
1017 1 1 10.9031 10.9183 3.19117 3.66136
7573 1 1 10.6771 10.1399 4.05303 2.81735
7739 1 1 11.1863 10.027 2.80901 0.0175755
433 1 1 12.0951 11.7436 2.71355 2.07258
2062 1 1 12.2438 11.0381 4.79087 1.2606
1706 1 1 14.7743 10.8079 4.2474 1.47253
7444 1 1 12.8162 10.4057 4.02963 0.493512
386 1 1 13.1325 11.8312 3.62731 1.64176
1533 1 1 15.7152 11.0108 3.70353 2.00394
683 1 1 17.6017 10.7216 3.2131 1.5973
1965 1 1 15.2495 10.1168 2.55373 0.196518
1349 1 1 18.6924 11.0298 3.39476 0.133301
7350 1 1 0.420438 12.7458 4.24826 0.790754
7927 1 1 2.60731 12.7866 4.46196 0.829054
243 1 1 2.60323 12.683 3.3374 2.99594
863 1 1 2.54194 10.8931 2.92025 0.997858
1958 1 1 4.88594 12.6457 3.2144 0.347361
344 1 1 6.01657 12.4943 3.20139 0.789416
216 1 1 6.31027 13.2735 3.90032 0.345283
1163 1 1 8.25474 12.6835 3.39656 1.83665
699 1 1 9.13584 11.8635 2.73379 1.54741
823 1 1 9.21407 12.3695 3.75479 0.404161
1545 1 1 9.84117 10.9955 4.08884 2.12
1165 1 1 10.0085 11.8424 3.46789 0.277826
7984 1 1 11.1905 12.3276 4.49059 0.897478
6590 1 1 12.3692 12.2795 4.09083 1.69556
6750 1 1 14.2972 12.0042 3.18982 1.58295
1187 1 1 14.4726 12.9039 2.66347 1.05325
1676 1 1 13.3943 12.9349 3.93265 0.765753
1087 1 1 16.9433 11.9138 3.25802 3.39938
1351 1 1 17.6714 11.5817 3.86979 1.61071
1528 1 1 0.377669 11.7423 2.35162 1.7656
1360 1 1 1.30253 14.1543 2.60336 1.17317
1116 1 1 1.97013 13.5329 3.50728 1.18069
6720 1 1 2.77105 13.831 4.54669 1.84855
6563 1 1 1.68975 13.7889 5.09475 0.0468814
1082 1 1 3.63568 13.2688 4.42192 1.47898
1526 1 1 3.85173 14.7576 4.72583 1.50697
7376 1 1 4.63885 12.9362 4.29741 1.07035
1448 1 1 5.34953 13.9291 3.04932 1.6344
1210 1 1 8.49708 13.9093 3.41913 1.27405
6683 1 1 8.46034 13.2347 4.49407 0.0168311
7464 1 1 7.37267 12.6588 4.30101 2.89109
7990 1 1 8.69147 14.8737 3.92471 1.20981
221 1 1 10.9537 13.122 3.49539 5.5983
1590 1 1 13.9235 14.0991 3.85745 1.4573
1147 1 1 12.637 13.8525 4.00866 6.90651
7993 1 1 14.7157 12.6743 3.94536 0.483764
818 1 1 15.341 13.4054 3.11514 1.88498
669 1 1 15.1137 14.089 3.75004 0.618726
2798 1 1 16.273 13.4247 3.96349 0.502934
259 1 1 17.3674 13.8242 3.8124 2.28393
1971 1 1 0.381477 13.6186 2.91619 2.19407
240 1 1 17.2166 12.7273 3.97024 0.929601
608 1 1 0.714719 13.7708 4.24654 0.113475
126 1 1 0.63271 15.7507 2.89044 1.83545
1282 1 1 2.75777 15.167 2.1852 3.42064
2755 1 1 2.41982 14.774 4.47369 0.650397
795 1 1 4.18976 14.5309 2.12049 1.63406
840 1 1 3.88689 15.1169 3.02373 1.51016
834 1 1 5.19179 15.1286 3.28915 0.814394
1337 1 1 4.50547 15.4555 3.98497 1.05716
684 1 1 6.18823 14.9786 3.69122 1.33091
504 1 1 7.68683 14.9632 3.05922 2.95697
902 1 1 7.08738 15.5992 3.69854 0.986373