ITEM: TIMESTEP
2400
ITEM: NUMBER OF ATOMS
8000
ITEM: BOX BOUNDS pp pp pp
0.0000000000000000e+00 1.8820720577620570e+01
0.0000000000000000e+00 1.8820720577620570e+01
0.0000000000000000e+00 3.7641441155241139e+01
ITEM: ATOMS id mass type x y z v_temp
351 1 1 0.643178 1.84215 1.7346 0.562665
1198 1 1 2.87662 0.69172 0.175205 1.99653
1116 1 1 2.87215 0.5678 1.21332 1.00381
6280 1 1 3.2235 1.1988 2.10295 1.54615
6076 1 1 4.58223 0.328487 37.3668 1.29594
7613 1 1 5.11254 18.0932 2.08847 2.43004
775 1 1 8.01068 2.14494 0.912111 1.54113
6363 1 1 6.21983 2.01467 1.63142 0.453943
175 1 1 7.96295 18.6346 0.303539 2.93582
934 1 1 7.7993 1.02098 37.5166 0.418754
1416 1 1 7.43878 17.7083 1.11134 2.9316
6582 1 1 11.2818 18.4802 2.08848 0.421906
1139 1 1 11.9305 1.08337 0.425616 0.423436
7873 1 1 11.1171 17.981 0.398251 0.747098
352 1 1 13.6156 18.1497 36.7966 0.716419
1377 1 1 14.1804 2.01096 2.27116 3.51565
7568 1 1 13.5585 18.1467 0.354953 0.286524
1186 1 1 16.4964 17.7972 2.12771 0.520889
1265 1 1 15.5634 1.60816 37.4764 0.450335
126 1 1 15.1351 0.510455 0.335037 0.914842
791 1 1 18.211 0.214449 0.797464 0.686232
1999 1 1 18.0163 17.4526 0.980488 0.838132
383 1 1 0.892287 2.31706 37.4848 8.44957
7930 1 1 17.9678 1.54364 1.21195 2.01609
6845 1 1 17.9297 1.74925 37.6453 1.8649
31 1 1 0.249958 2.565 2.86117 0.626899
1739 1 1 2.12827 1.28074 1.47582 4.6557
7604 1 1 2.81749 1.8327 0.616043 0.499432
155 1 1 4.99753 18.5212 0.425442 2.26128
7785 1 1 4.69787 1.85285 1.83343 2.96541
1446 1 1 7.2091 2.03778 0.249438 0.0257767
217 1 1 8.6673 3.72726 37.205 0.24315
418 1 1 8.19692 2.77225 1.72708 0.45431
726 1 1 10.0732 2.69813 0.848185 0.239766
2348 1 1 10.7119 2.0247 1.6999 2.06531
1333 1 1 12.7502 2.36868 0.0879761 1.49098
515 1 1 12.7671 1.51783 0.899658 0.986071
7745 1 1 12.8516 0.976799 37.3206 2.00306
1270 1 1 13.5132 2.10564 1.61937 0.366199
6850 1 1 13.5829 2.42206 0.642522 1.29497
1037 1 1 16.3358 1.61377 0.776564 0.949908
1315 1 1 16.9588 18.6215 0.0952763 2.77192
6006 1 1 0.265418 4.04911 1.62508 1.04902
508 1 1 0.801212 1.67493 0.715093 2.71695
1045 1 1 0.218205 6.56812 2.04315 0.320486
875 1 1 1.39689 4.63249 36.8594 1.55871
7718 1 1 2.12144 4.13234 0.179735 4.32913
6152 1 1 5.40738 3.83699 1.62475 1.06991
1348 1 1 5.41697 2.76282 1.76162 3.0161
6026 1 1 3.76094 4.55031 2.59472 1.82412
1850 1 1 7.23934 3.68381 1.09076 0.0530233
1381 1 1 9.81735 5.42844 37.3506 1.75669
7861 1 1 8.35834 3.73534 1.02564 0.193553
7032 1 1 11.1584 3.98609 0.650579 1.19317
1661 1 1 9.13546 3.18216 2.14241 1.73917
7588 1 1 11.8765 4.35057 0.128863 0.143708
6060 1 1 11.8153 4.41212 2.6856 0.825112
1806 1 1 14.7789 3.23285 0.580017 0.573023
7155 1 1 13.6127 4.01595 1.00134 3.40208
437 1 1 12.8359 4.21125 36.7453 0.191448
7301 1 1 14.1762 1.58514 37.3229 0.439128
2221 1 1 16.266 3.65195 37.4514 1.88175
7468 1 1 14.5351 3.81936 1.71695 0.317138
5355 1 1 16.9234 3.70108 0.708042 0.292221
223 1 1 18.7389 5.66619 0.197507 0.232677
2033 1 1 0.955662 3.1529 3.51 0.521114
1401 1 1 0.633507 4.80234 36.1906 1.14368
7697 1 1 3.18484 5.57108 37.1193 0.54623
936 1 1 3.39244 5.1623 1.61989 2.27621
7904 1 1 3.67621 4.57564 36.6105 0.461329
582 1 1 6.66516 3.75154 37.3243 0.370358
6922 1 1 9.29435 4.22298 0.743208 0.124628
7748 1 1 7.1496 5.05878 36.5975 5.23826
7387 1 1 7.80494 4.88726 0.969191 2.5767
6703 1 1 9.03325 2.96514 0.907934 0.491003
6551 1 1 10.1489 4.24527 0.298227 0.812931
7408 1 1 11.8628 5.19668 37.2317 1.77847
6044 1 1 12.8626 4.90188 0.334159 0.328016
271 1 1 14.3024 5.38386 2.43784 1.43657
7320 1 1 13.934 3.6167 35.982 4.47219
7115 1 1 14.5942 4.5118 0.427017 0.744145
1329 1 1 16.1308 4.62415 0.0166366 2.11848
103 1 1 16.8039 5.46581 0.319572 0.701664
7091 1 1 15.9068 6.50973 37.0991 0.531646
7717 1 1 18.6821 8.024 0.838293 4.21058
6161 1 1 1.16731 6.92386 36.7676 1.19267
137 1 1 17.1765 7.32081 1.63179 0.518684
7507 1 1 2.26698 7.26837 0.375243 2.30692
1409 1 1 1.72487 6.96054 1.66704 1.3427
7942 1 1 0.644332 8.1236 0.207442 2.31194
6971 1 1 3.38235 7.98361 1.64346 2.13957
72 1 1 1.68259 8.47877 37.3244 2.57769
190 1 1 4.71263 7.1955 36.8641 0.487487
6605 1 1 2.96884 6.55534 2.1633 1.0912
7215 1 1 3.38922 5.28494 3.76269 0.351111
294 1 1 8.02336 6.90921 0.26354 1.82615
7944 1 1 3.73061 5.60053 2.77055 2.40218
5747 1 1 6.50306 3.8507 1.81617 2.70902
429 1 1 8.90178 7.03658 37.1315 2.09981
7094 1 1 10.3997 7.0504 2.24352 0.603544
21 1 1 9.41981 6.07198 36.6828 0.415693
61 1 1 10.5051 6.48532 0.615319 3.26221
6619 1 1 13.037 6.94307 0.812961 1.31704
550 1 1 11.544 5.04582 1.87239 1.89246
533 1 1 10.0586 6.25836 1.57747 0.83462
1664 1 1 14.8641 6.04976 0.639303 1.13246
486 1 1 14.5848 7.37267 3.08638 0.596557
591 1 1 14.5618 6.68577 1.85188 1.81933
164 1 1 14.5727 3.23823 37.2715 1.67209
762 1 1 17.6175 7.79338 37.3509 0.0898887
6476 1 1 16.7403 6.12894 1.42508 4.56671
5857 1 1 17.2829 6.60475 37.5675 0.36134
354 1 1 6.50903 5.70019 37.2667 4.22709
6987 1 1 3.08385 6.55017 0.0828884 3.45965
6874 1 1 7.57669 7.76316 2.11025 1.22308
1415 1 1 4.9058 6.66929 2.64887 0.145334
615 1 1 7.56166 8.63903 1.22468 0.857385
7740 1 1 8.96604 9.3411 0.381942 0.351247
7958 1 1 10.9655 7.06881 37.551 4.7853
973 1 1 11.1089 8.55532 2.23377 0.762718
6463 1 1 10.2067 7.80186 37.5813 0.4629
91 1 1 14.6753 7.66653 1.07693 0.605044
1193 1 1 13.7795 7.83723 1.41733 0.298693
276 1 1 16.1717 7.73586 37.3142 1.13352
5649 1 1 18.4111 8.55924 0.088864 1.13843
371 1 1 16.7753 7.49482 0.545302 0.281734
1360 1 1 3.00565 8.93723 0.167607 2.68497
6196 1 1 1.75394 9.43176 2.05014 3.703
6762 1 1 1.35479 11.0733 2.41808 0.595278
6126 1 1 4.22393 10.6769 37.4802 0.574923
834 1 1 3.3874 11.391 0.667494 1.56365
7326 1 1 5.84945 8.49464 1.59325 0.694637
1681 1 1 4.71462 9.29569 1.25776 0.205043
6584 1 1 7.17893 10.318 0.905361 0.346617
7065 1 1 6.67419 8.6077 0.0736457 0.476573
7943 1 1 9.72437 10.6036 1.29998 0.719767
1781 1 1 7.18922 8.82309 2.47157 0.884789
6497 1 1 10.4019 9.06743 1.24021 0.188479
7866 1 1 11.0638 9.65655 0.438972 1.27644
6699 1 1 12.2108 8.95769 37.4755 1.13248
574 1 1 11.9842 10.0269 1.00084 0.319402
7266 1 1 12.4174 8.70145 0.811429 0.96829
7983 1 1 14.1061 8.86039 1.31969 1.68989
7021 1 1 17.3464 8.4394 0.447029 1.39465
6599 1 1 17.8063 11.2018 36.787 3.73826
6159 1 1 16.7683 9.14131 1.40245 0.119968
86 1 1 0.390032 10.0903 0.135844 0.875722
7621 1 1 3.73128 11.2241 2.34194 2.16862
7967 1 1 0.953585 11.3851 0.933061 0.940942
7047 1 1 3.94979 10.1837 0.736109 0.406636
6656 1 1 4.03797 10.8193 35.6485 0.546719
955 1 1 6.2475 10.7849 0.815333 0.792395
6842 1 1 7.9929 11.9072 1.30928 0.858119
7002 1 1 9.20774 10.4814 0.239624 1.71118
1790 1 1 7.42184 11.4073 0.495091 4.31831
6380 1 1 4.44811 8.45833 35.8885 6.24644
6933 1 1 8.89492 7.81494 1.17051 3.24059
721 1 1 10.0089 9.62564 0.322457 2.00358
6752 1 1 10.5937 11.9571 0.438258 4.26318
6527 1 1 11.2216 11.9383 36.6969 1.69284
38 1 1 12.7219 11.0381 1.25826 0.871433
678 1 1 10.4227 10.2792 37.3136 0.339166
423 1 1 13.5882 10.0503 1.58792 3.30803
1074 1 1 14.3064 9.59253 0.144713 0.890042
1068 1 1 15.2522 11.68 35.902 0.947403
969 1 1 16.1614 11.0956 0.797976 0.972736
1349 1 1 17.1867 10.6974 0.759161 0.613926
634 1 1 0.509671 12.4175 36.7972 1.99406
7772 1 1 18.702 11.493 1.1784 0.2221
7836 1 1 0.606755 12.9278 35.8853 3.59588
7855 1 1 0.288164 12.7806 1.47224 1.00312
549 1 1 2.85471 12.489 36.9612 0.443735
773 1 1 1.81586 12.3177 1.26237 2.03763
7056 1 1 2.97145 13.0881 1.48231 1.79921
8000 1 1 6.28136 11.7371 1.59679 0.731855
7854 1 1 4.72657 9.18226 0.0369346 2.20467
1432 1 1 7.23876 12.5743 1.00871 1.70862
829 1 1 7.89447 13.5187 0.257256 1.80428
10 1 1 8.81704 11.4018 0.481037 0.767436
6399 1 1 9.79489 15.216 0.490669 1.10253
6939 1 1 10.7681 12.8255 37.3138 0.383035
1103 1 1 11.8969 15.2129 0.667373 1.62598
236 1 1 9.97767 13.5052 36.3487 1.91435
7548 1 1 15.4365 11.6274 37.6067 0.2748
2320 1 1 12.303 11.5796 2.30856 4.31874
6590 1 1 14.421 12.877 1.07922 0.0959867
7993 1 1 15.5149 12.4717 36.5223 6.277
2353 1 1 15.2389 11.4935 1.8412 0.613269
7670 1 1 17.1702 12.4871 1.41438 0.978161
1676 1 1 17.5469 12.0242 2.38094 0.465944
1567 1 1 18.2496 13.248 37.287 0.168043
7947 1 1 2.35722 14.3954 2.1887 0.68877
962 1 1 18.2177 13.8233 1.19055 4.69583
4804 1 1 2.06859 14.6725 3.13896 1.07085
7957 1 1 1.43764 15.741 3.90447 0.133544
1350 1 1 3.7221 13.1148 37.2632 2.22321
7217 1 1 4.40824 15.854 0.1695 1.13872
6232 1 1 3.78407 12.3401 1.42947 0.702306
287 1 1 5.03428 12.396 36.4976 0.470979
7248 1 1 5.75036 15.5442 1.15232 1.43929
239 1 1 8.02029 15.1274 2.15842 1.88375
1144 1 1 10.591 15.5453 37.07 0.9844
1295 1 1 8.68654 13.783 1.9695 0.783866
976 1 1 13.5617 13.4753 1.45833 1.85049
7680 1 1 12.306 15.8269 37.5378 1.46376
297 1 1 15.9533 13.7664 0.225909 5.70837
7052 1 1 14.1431 14.5288 1.36761 4.63068
7853 1 1 0.163632 13.745 0.544824 0.819971
2409 1 1 18.679 14.8466 1.22695 0.448554
7338 1 1 16.241 13.0968 1.99538 0.872474
1529 1 1 16.7991 16.088 1.05241 0.722414
7926 1 1 1.51676 15.8262 36.9173 0.613838
686 1 1 1.73554 16.5601 2.46835 0.916435
7101 1 1 0.97702 16.6085 37.5115 1.42625
7454 1 1 2.77088 15.1967 36.1199 3.75028
558 1 1 3.92094 14.1997 2.0574 2.09844
1481 1 1 4.4022 17.1142 37.4006 2.61125
844 1 1 5.16342 14.7875 0.266921 1.45495
1210 1 1 7.42889 14.5006 0.567123 0.894895
7891 1 1 10.7594 15.9588 0.493205 2.20364
7180 1 1 11.1207 15.3518 1.41229 0.155593
7543 1 1 13.3211 16.0453 0.0683453 1.22354
389 1 1 14.6512 15.4127 0.669356 0.320272
432 1 1 14.5148 15.0339 2.24698 0.69077
653 1 1 15.8391 16.2977 0.651176 1.37238
393 1 1 16.4108 14.3914 36.7871 1.70229
7390 1 1 16.1717 15.9978 37.1231 1.99245
1406 1 1 16.8849 15.5247 1.94603 3.01992
579 1 1 16.9451 15.6405 0.0467444 1.85802
7451 1 1 1.52417 17.5516 1.45433 1.16381
1569 1 1 1.23916 0.535045 36.0782 0.930675
757 1 1 1.70941 16.7956 0.748835 0.104687
7569 1 1 4.50857 15.0563 36.748 1.16255
1729 1 1 5.02369 13.9317 1.5851 2.87252
605 1 1 5.85141 17.8231 1.18135 2.97569
1995 1 1 6.27493 16.3367 0.745243 1.41646
7303 1 1 7.18656 16.8631 1.66233 4.8264
1582 1 1 7.40904 16.9833 36.2222 0.446148
13 1 1 6.68718 18.7706 0.54452 4.61225
1206 1 1 10.3311 17.6693 36.8837 0.829908
6851 1 1 8.44571 15.4194 0.674167 2.74511
7452 1 1 10.5878 17.292 1.86359 0.394433
7149 1 1 11.7974 17.5184 1.39245 4.60609
433 1 1 11.8198 15.1227 2.32055 1.53316
7341 1 1 14.0487 16.7167 36.2795 0.840687
1110 1 1 17.5912 16.212 2.63808 0.770252
356 1 1 14.3054 16.4591 -0.0269467 0.533539
629 1 1 15.2654 14.5436 0.106273 0.699173
1042 1 1 17.1696 17.0047 1.74971 0.775286
5999 1 1 17.6469 17.154 36.5749 3.35447
7892 1 1 0.61315 17.4228 37.0667 0.0378279
129 1 1 1.69706 17.3446 37.3905 0.46102
6688 1 1 3.11096 17.62 0.711261 2.2091
692 1 1 3.95969 0.0868172 0.456868 0.420712
6713 1 1 2.65395 18.5057 37.2517 0.469859
7404 1 1 3.54829 15.5924 0.677877 3.68145
835 1 1 5.12786 16.2684 36.6843 0.613575
6835 1 1 5.76559 16.6349 37.3633 1.22875
566 1 1 6.86782 18.5743 1.53881 3.9322
6914 1 1 8.42171 17.6195 0.231473 2.06691
5985 1 1 11.5032 17.1598 37.5739 5.1137
472 1 1 12.2757 17.8811 2.49011 4.49868
7672 1 1 12.6984 17.2937 0.0462347 1.59304
2287 1 1 17.2964 18.6821 36.5573 1.64924
6092 1 1 13.8599 17.2552 0.867848 2.48586
7106 1 1 18.1851 18.035 36.3233 0.726127
7202 1 1 17.7548 0.594826 37.1525 0.122626
2662 1 1 18.6916 16.6872 36.5564 5.10699
7261 1 1 0.394524 15.8488 37.0957 2.55377
194 1 1 18.4464 1.87866 2.25457 1.23056
954 1 1 1.26318 0.225683 1.75955 0.76218
643 1 1 2.49734 2.76173 1.92384 1.2419
7818 1 1 5.32896 0.195378 2.59328 1.29762
3146 1 1 4.38607 0.639269 1.63971 3.80685
1279 1 1 2.26364 0.167933 2.14454 1.05058
7166 1 1 5.60022 0.147677 1.51024 3.59667
1140 1 1 6.36586 0.561508 2.43423 1.52039
895 1 1 7.6648 0.680498 0.801849 0.751204
700 1 1 11.3555 0.732339 3.57832 0.895838
6986 1 1 8.91257 17.9696 2.00167 2.22332
1708 1 1 10.575 17.565 3.13588 1.25645
505 1 1 13.6693 1.0187 0.812718 0.247548
2106 1 1 12.3167 18.1933 0.69089 0.830724
640 1 1 11.7552 17.2994 3.3481 2.90186
7440 1 1 15.3684 1.08409 1.6049 0.764881
1928 1 1 17.6609 18.4012 2.10151 1.90433
1672 1 1 18.3409 0.614853 2.29943 1.93031
7992 1 1 1.54937 3.59975 1.83461 0.626795
7938 1 1 1.27695 4.72771 0.932869 0.688452
656 1 1 4.17068 2.42866 2.42359 0.22713
489 1 1 3.48121 2.47516 1.68427 1.29875
1309 1 1 5.15666 1.17138 2.58452 1.22593
6942 1 1 6.47015 0.869453 37.2347 1.35245
7535 1 1 8.32761 1.54093 3.47844 0.682671
7332 1 1 9.04 1.03428 0.766457 5.00734
6477 1 1 8.61735 2.47205 2.63896 2.9616
94 1 1 10.277 1.78738 2.71453 1.68471
6659 1 1 9.171 1.91365 1.70043 0.71948
82 1 1 8.40709 3.89942 2.30931 0.00734364
1993 1 1 9.58149 0.00190008 1.85555 0.88394
511 1 1 13.007 0.526432 2.45373 1.40403
1339 1 1 11.767 1.61864 1.42029 0.285312
122 1 1 10.9525 0.895968 2.45578 1.21585
3071 1 1 13.6006 4.01589 2.16679 2.10846
1183 1 1 14.047 0.836253 2.31392 1.40733
1591 1 1 16.2544 0.363126 2.09464 0.0760206
149 1 1 16.037 1.60988 2.28441 3.14196
1020 1 1 16.0582 2.97862 0.63206 3.45988
7088 1 1 17.4632 1.71071 2.43467 0.862514
7841 1 1 1.85388 3.75284 2.89553 0.400455
366 1 1 2.45527 4.80939 2.67676 2.61392
406 1 1 2.50691 4.18751 1.79819 0.845447
509 1 1 0.57905 4.8842 3.95351 2.59009
2824 1 1 3.75839 2.78932 0.545689 2.3977
3 1 1 5.78265 4.75742 2.25778 0.226712
1237 1 1 4.57952 3.3338 2.50564 1.719
7503 1 1 5.21824 5.14852 0.588362 0.374414
7663 1 1 5.96154 3.54156 3.90672 2.56582
7653 1 1 9.28497 4.1264 1.81147 0.895375
661 1 1 7.21933 3.04863 2.0557 1.89273
56 1 1 7.26142 1.34631 2.8714 0.649761
570 1 1 9.00222 4.4069 3.74921 0.886178
3337 1 1 12.1368 3.36502 1.02529 0.495858
1648 1 1 11.4689 2.94537 2.40083 0.325824
980 1 1 12.6291 1.81842 2.04197 0.0904087
1239 1 1 13.9041 4.90595 1.42097 0.190843
6241 1 1 15.696 2.92061 1.7392 0.303555
651 1 1 17.3301 4.09621 2.81451 1.86646
115 1 1 17.8595 3.70124 1.9729 0.242263
7937 1 1 0.533629 2.78596 4.48355 1.18239
314 1 1 18.1581 4.56202 2.73331 0.513585
7284 1 1 18.5754 5.10804 1.38392 3.14054
7631 1 1 3.63402 4.19927 4.38458 0.374485
68 1 1 2.16626 6.09584 0.455204 0.498681
7660 1 1 2.62222 4.31078 3.69363 3.45547
1714 1 1 6.4191 6.12085 0.65276 0.341194
7643 1 1 8.01618 5.63303 1.75093 3.28363
7644 1 1 10.7089 3.72572 1.82922 0.332814
553 1 1 10.9642 6.46355 3.22661 0.130212
7348 1 1 12.3611 4.063 1.80954 1.89919
588 1 1 13.4146 4.64019 3.47713 1.31353
1826 1 1 13.2349 5.19942 2.35798 0.63461
1833 1 1 13.6327 6.90037 2.83513 3.94053
469 1 1 15.181 5.59568 1.89313 2.63697
7358 1 1 16.3372 4.82243 1.82323 0.0975549
802 1 1 17.8394 6.53357 2.39144 0.887301
7659 1 1 17.5122 5.40226 2.00556 0.714329
3092 1 1 17.4526 5.13547 3.24597 0.607741
1287 1 1 17.7637 7.07262 5.11425 0.935139
5817 1 1 2.98853 6.77342 3.22144 0.811569
7242 1 1 1.6157 6.52015 3.50481 0.728327
7803 1 1 1.85039 6.21183 2.37677 0.711438
7738 1 1 4.73231 4.66623 2.44899 0.545519
1596 1 1 2.43523 7.57315 2.70891 0.581321
1427 1 1 3.7888 6.38147 1.36376 0.940322
214 1 1 7.13746 6.30666 2.73644 1.82251
1076 1 1 9.57439 5.39842 1.19184 0.209715
1369 1 1 8.83293 5.37493 3.41142 2.72831
117 1 1 9.03711 6.73399 1.91498 6.23536
7625 1 1 10.103 4.6899 1.47314 0.50843
7972 1 1 12.6516 5.6582 4.3264 0.983186
140 1 1 12.3862 6.21668 2.24414 1.47883
7719 1 1 13.7186 6.18463 1.40006 0.637707
7185 1 1 14.3639 5.12964 3.37619 1.45907
1537 1 1 16.2023 7.39328 1.61913 3.20782
7544 1 1 15.3977 4.68514 2.90266 0.749305
6995 1 1 0.797466 9.25874 4.12602 1.52098
6975 1 1 3.46309 9.88502 2.60317 2.6967
1562 1 1 0.947178 8.5639 1.25849 2.11289
926 1 1 1.16779 8.06513 2.32611 2.79487
7472 1 1 3.92608 8.64844 3.03843 4.46281
925 1 1 4.90306 7.96157 1.74819 1.89663
529 1 1 5.21121 8.3582 0.584677 2.61338
1547 1 1 5.32639 9.94749 1.94639 3.90161
1224 1 1 7.28775 6.03811 1.13773 4.12117
1194 1 1 8.27046 9.03336 2.12467 1.46505
1107 1 1 9.94116 7.16995 3.39449 6.74005
6566 1 1 9.11726 7.3158 2.80818 1.1282
519 1 1 11.901 6.91559 3.7442 1.71043
2244 1 1 12.0166 8.08767 2.74318 0.977803
277 1 1 11.2323 7.61026 1.2947 1.8987
5690 1 1 12.7329 7.23448 1.86524 6.00635
543 1 1 14.5941 8.1809 1.99449 3.07625
102 1 1 15.738 7.59864 2.75354 0.799585
913 1 1 16.121 8.66483 0.83298 2.48708
669 1 1 16.4366 8.70722 2.40142 1.2707
6675 1 1 17.9233 8.0776 3.11843 3.04505
107 1 1 18.1968 8.33759 4.19487 1.4163
1036 1 1 1.30595 10.48 1.27465 0.298597
178 1 1 2.60119 11.3189 3.95059 0.706416
1863 1 1 4.5176 9.4235 2.69953 1.44202
369 1 1 3.81549 8.83125 0.913166 1.10217
2311 1 1 5.50357 8.84333 4.36753 0.077718
1046 1 1 6.61727 10.2766 1.67372 0.855792
238 1 1 8.03224 10.9889 1.3366 3.91432
985 1 1 8.68537 8.30352 2.82825 0.379621
7538 1 1 8.95236 11.1906 4.25718 1.73524
341 1 1 10.711 7.93717 4.03535 0.934029
7156 1 1 10.3113 10.051 2.43006 2.26407
610 1 1 11.386 8.62133 1.05197 2.24168
1487 1 1 11.2882 10.2208 3.27865 1.28189
7945 1 1 15.1876 8.85392 1.3823 0.709745
1906 1 1 15.3953 8.72016 2.44119 0.861812
79 1 1 16.6982 10.5691 1.79098 0.36315
247 1 1 2.14878 8.80497 0.794332 1.64076
7851 1 1 18.4845 12.1763 2.08415 1.06093
230 1 1 0.711073 10.0427 2.08429 0.207083
300 1 1 1.82017 11.032 3.34398 1.86984
7966 1 1 2.96129 10.897 1.81398 0.514384
445 1 1 3.21019 12.8426 2.74193 3.13026
765 1 1 3.24418 9.30471 1.75865 0.89424
340 1 1 4.26195 10.1828 1.74406 0.726621
1264 1 1 4.22986 10.6685 3.57304 1.12301
481 1 1 5.91579 10.7994 2.89873 0.531679
1389 1 1 5.20924 10.9829 4.78147 0.67749
7335 1 1 7.66738 9.9091 2.1801 0.325111
4198 1 1 8.89592 10.6414 3.3036 1.54785
1069 1 1 11.3376 9.98616 2.03429 0.58027
2814 1 1 9.05616 11.1238 2.40834 0.814441
1385 1 1 10.1844 11.0777 2.06441 0.748201
6693 1 1 12.4633 10.315 1.8559 2.10689
386 1 1 11.5701 10.9378 2.04599 2.10604
7913 1 1 15.1441 9.82849 0.866822 0.470636
374 1 1 13.4976 9.86671 2.7228 1.41687
818 1 1 13.4146 11.595 2.15241 2.36896
1234 1 1 17.9649 11.7803 4.697 1.16061
7800 1 1 16.4064 9.99304 1.09196 0.428422
336 1 1 18.1481 12.5994 0.953447 1.50572
7089 1 1 18.0722 10.7033 3.22401 2.89878
259 1 1 2.14105 11.9979 2.43403 2.47286
245 1 1 1.59672 13.3056 3.74275 0.123384
7811 1 1 3.76503 11.7555 3.11132 2.44596
584 1 1 5.12378 12.7882 3.64577 1.92885
704 1 1 4.96169 12.3371 2.4596 1.85706
769 1 1 7.48243 13.7179 1.84096 3.38602
6646 1 1 2.1646 12.8198 3.12599 2.65827
815 1 1 6.51752 14.8759 1.36856 2.78876
1542 1 1 8.76447 13.1977 0.837294 1.87679
7704 1 1 8.62652 12.5827 2.04061 0.641004
1475 1 1 8.18529 13.2928 3.15542 0.322657
7459 1 1 8.17669 11.195 3.62341 1.46338
563 1 1 9.14703 11.7613 1.53033 3.84711
734 1 1 9.53226 13.4026 3.41662 0.118532
6723 1 1 10.9948 13.377 0.527962 0.425552
7004 1 1 10.7042 10.4299 1.10896 3.86181
7834 1 1 12.8908 12.4919 2.43328 3.7688
2150 1 1 11.43 11.2624 0.826554 2.84205
627 1 1 16.7931 12.5717 2.76066 1.25186
1514 1 1 15.934 12.3227 0.634579 1.87075
712 1 1 14.3763 13.067 7.28022 1.43964
234 1 1 17.2686 13.8637 1.96113 2.47356
1082 1 1 0.82641 11.9996 2.01638 0.986658
1971 1 1 18.3889 13.3923 2.56265 1.77242
6459 1 1 4.18796 13.3847 3.32269 2.42153
7060 1 1 4.45024 13.2994 2.35861 0.827782
6600 1 1 6.06794 12.1991 2.48016 0.863877
487 1 1 7.39014 14.6339 2.66221 3.1652
365 1 1 6.6119 15.1555 3.10722 0.515473
53 1 1 7.88892 14.2313 3.526 2.66912
1165 1 1 9.59604 12.5229 0.767699 2.42861
7984 1 1 9.62724 14.4947 1.31604 1.98959
286 1 1 10.7252 14.4102 0.719256 1.73589
416 1 1 11.5043 14.0259 1.54221 0.567703
6750 1 1 14.0343 13.5518 3.05851 0.287449
1187 1 1 13.7892 12.0987 1.19213 1.30968
1904 1 1 13.7406 14.7216 2.78914 1.08598
7444 1 1 16.3447 14.3721 1.82057 0.870578
375 1 1 16.1088 14.9509 0.8829 1.47682
1282 1 1 0.940437 15.7098 0.344281 2.26462
1561 1 1 3.06326 15.0527 2.1073 0.854063
785 1 1 4.5673 15.1487 1.28286 3.03987
504 1 1 4.15829 16.0239 1.69477 0.360043
1527 1 1 5.35158 16.8441 0.792484 0.714787
2046 1 1 6.57291 16.9394 4.01262 2.18394
7489 1 1 6.18573 15.4244 2.14055 0.872784
885 1 1 5.82984 14.4242 3.12574 0.0969378
902 1 1 6.0711 16.516 4.85653 2.66698
1940 1 1 7.54173 15.8256 3.60847 1.62864
2224 1 1 11.9013 16.3235 1.52054 3.57834
961 1 1 7.33879 15.3408 1.11127 0.0246921
7893 1 1 10.7265 14.6921 3.34988 0.790307
7757 1 1 15.3678 15.5062 1.64572 1.92215
93 1 1 14.8474 14.6488 3.53886 0.0742741
1077 1 1 15.8984 13.7769 2.83572 0.250399
1614 1 1 16.653 14.9033 2.74358 2.62184
7951 1 1 0.374358 16.9848 1.17193 2.74557
7116 1 1 18.7191 16.309 2.64901 0.641075
439 1 1 2.38421 15.0544 0.760138 1.79156
1634 1 1 2.58751 16.7637 1.47595 0.11972
7934 1 1 3.42809 17.4198 1.73599 1.68824
763 1 1 5.86238 17.0387 2.36757 0.353018
7620 1 1 9.42586 15.7019 1.52544 0.499479
1196 1 1 10.462 18.3182 1.48182 1.91037
338 1 1 10.8458 16.0363 4.00693 1.158
1167 1 1 12.7594 16.0148 2.88317 0.998208
7163 1 1 13.2648 16.3373 0.984168 2.63528
820 1 1 13.9848 15.7254 2.90962 0.738894
1308 1 1 13.9941 18.7454 2.04283 1.08103
1479 1 1 14.5759 16.266 2.10242 0.869022
1638 1 1 18.3345 16.6006 0.230884 0.979452
328 1 1 1.15463 0.652522 0.856322 1.0361
859 1 1 0.202679 0.968403 0.184587 1.5544
611 1 1 2.64744 17.4332 3.83897 0.849632
6866 1 1 6.85162 1.22872 1.51855 2.06614
687 1 1 5.5573 16.3724 3.71226 4.75318
7300 1 1 6.14574 18.2875 2.44457 1.54923
1328 1 1 6.76601 17.7164 3.3063 0.154252
96 1 1 7.84396 18.1636 2.07555 0.321178
6079 1 1 8.41701 0.0421519 1.57392 0.576671
173 1 1 9.4493 18.2912 36.4694 2.51826
7950 1 1 9.8007 17.0298 0.186944 1.65107
696 1 1 10.2453 17.7214 4.29764 0.65359
1616 1 1 10.5905 18.5452 3.70072 3.90436
20 1 1 13.223 15.1874 1.01007 1.19121
1588 1 1 13.3229 0.134257 1.28334 1.94241
6872 1 1 16.247 16.3559 1.91265 0.742704
881 1 1 15.9704 15.5865 2.81967 2.88334
1269 1 1 17.4856 17.8701 3.16599 0.250886
7497 1 1 16.1056 18.1958 1.11888 1.40375
7744 1 1 17.1103 0.778028 1.51722 4.23341
1607 1 1 0.795666 18.2337 3.19562 0.288174
18 1 1 18.7276 18.3635 4.23307 4.44196
2026 1 1 2.22656 1.59445 2.89146 0.380717
547 1 1 4.15501 1.40895 2.63834 4.91818
1327 1 1 4.39707 18.7123 5.0842 2.87764
633 1 1 4.65126 1.95714 3.7599 1.28998
1738 1 1 3.90424 1.84344 4.53459 0.323246
2126 1 1 7.34854 -0.018599 4.23023 1.25815
7982 1 1 8.15099 0.388718 3.05269 1.91178
1168 1 1 8.99981 0.741522 3.40716 0.271489
497 1 1 7.41346 0.519027 2.05253 0.0266109
1579 1 1 10.9184 18.3199 4.76169 1.30658
7150 1 1 9.31826 1.35736 4.57179 1.92511
7821 1 1 11.4987 18.269 3.18776 1.69313
7669 1 1 13.3466 18.5757 4.84556 0.478977
7980 1 1 14.1924 18.0743 4.76708 0.0933251
2270 1 1 13.6277 1.58706 4.86147 2.37181
430 1 1 15.0737 0.886881 4.70382 0.508456
1413 1 1 17.0369 1.94201 4.32503 1.21893
867 1 1 15.8339 1.78827 4.89227 0.161801
7028 1 1 15.9846 1.58869 3.82713 1.34314
853 1 1 16.9978 1.49792 3.41228 3.95364
1443 1 1 0.349894 1.42677 3.01387 0.308558
879 1 1 0.793696 0.512819 3.46737 1.01987
2030 1 1 3.24112 2.20808 2.9542 0.214954
109 1 1 2.81846 2.17835 3.95024 0.425094
7251 1 1 2.86083 3.13282 4.37296 0.0427438
915 1 1 3.54643 2.91819 3.67783 0.500204
1543 1 1 6.04391 2.98625 2.53196 0.966536
1322 1 1 4.47167 3.46495 3.61803 2.34043
7989 1 1 5.24763 2.72017 3.22159 0.731279
454 1 1 8.22183 1.59649 4.70988 3.32537
1466 1 1 9.40992 1.79856 3.2767 3.0356
824 1 1 10.2376 1.4736 3.93719 0.791359
1213 1 1 15.4163 2.13858 3.01449 0.264973
906 1 1 10.3518 0.564867 3.14937 0.615059
409 1 1 14.1249 3.09574 2.85006 0.716309
2075 1 1 12.8158 0.847184 4.56578 0.425011
1473 1 1 14.5482 18.4981 3.49408 1.16927
1044 1 1 12.6872 2.00361 5.32537 2.5402
1223 1 1 16.0752 3.06325 3.61622 0.183698
387 1 1 14.2354 1.886 3.87107 1.44114
7601 1 1 16.9876 2.81863 3.83698 0.535264
206 1 1 0.971289 1.09016 2.3262 4.64111
148 1 1 0.965147 1.86848 4.64865 0.753349
874 1 1 17.807 2.13175 3.48795 0.204531
7280 1 1 1.89381 3.50078 4.74819 1.43423
1374 1 1 0.106282 3.67869 3.6781 0.0910263
6648 1 1 2.45841 5.0813 5.66059 0.28983
774 1 1 1.45088 4.41539 5.48632 0.593165
7123 1 1 4.37737 3.10344 1.4649 0.885216
2917 1 1 2.12631 2.7093 3.00945 0.579173
1365 1 1 2.87825 3.62901 2.88529 0.468128
7921 1 1 4.46941 4.93982 4.71387 3.75732
7685 1 1 5.21329 4.78038 3.63864 2.04965
1488 1 1 6.45634 2.55409 4.7986 2.27603
2177 1 1 8.11611 1.51187 2.40664 0.357387
1208 1 1 7.54342 3.70654 4.59839 1.09066
544 1 1 10.3754 2.80225 3.11589 1.30668
623 1 1 11.0729 2.38184 3.74681 0.976158
7010 1 1 12.0383 2.78454 4.68143 0.755907
446 1 1 12.858 3.41107 3.65361 2.22972
2139 1 1 14.6941 3.80246 3.11864 0.462512
2867 1 1 14.1992 3.06219 5.11815 2.86497
1539 1 1 14.6781 2.01407 4.79058 7.08379
1422 1 1 17.1215 4.06561 4.88599 0.380018
7914 1 1 15.1479 3.10579 5.42188 0.534214
828 1 1 14.9982 3.29323 4.27787 1.3735
982 1 1 17.7964 3.31129 3.12866 0.0673979
1041 1 1 16.9327 2.99135 2.63158 2.60018
47 1 1 17.9754 4.522 4.70505 0.970771
1659 1 1 0.399437 5.19472 4.98681 2.96337
15 1 1 1.21333 5.66839 4.33191 4.66275
548 1 1 2.20148 6.18382 7.12566 0.78642
7924 1 1 3.63835 4.22428 5.54346 2.31032
125 1 1 6.88799 5.459 1.96993 0.217341
1723 1 1 4.84716 5.38132 1.589 0.792506
98 1 1 7.84065 5.12766 4.39553 0.295232
2318 1 1 8.13255 6.21452 3.97095 0.99929
796 1 1 9.70877 4.96003 3.25892 3.56836
6136 1 1 7.88744 3.24831 2.86953 0.671937
7666 1 1 11.6965 3.27414 3.40843 1.27966
183 1 1 9.79511 4.08327 2.75833 0.120449
1203 1 1 14.4258 4.20536 4.11597 2.84286
2017 1 1 13.5152 7.62771 3.72809 2.36679
7273 1 1 16.014 3.93886 0.97828 2.34354
7998 1 1 15.4875 4.04307 3.66773 0.589256
75 1 1 18.279 3.5123 4.59278 1.31722
6396 1 1 0.154928 6.05583 3.49937 0.910245
1002 1 1 2.12298 5.3993 3.66087 0.369251
6848 1 1 1.73438 7.58024 3.61483 2.37848
1883 1 1 4.13076 5.95947 4.24199 1.69732
7879 1 1 5.13572 5.67467 2.82402 1.44175
1717 1 1 4.20937 7.22827 3.34287 2.88
6767 1 1 6.03918 6.94512 2.86973 3.55829
1864 1 1 4.00519 7.30669 2.15427 0.345342
131 1 1 6.13171 7.77794 3.90317 1.02694
188 1 1 7.92412 5.63067 2.82196 0.578087
1217 1 1 7.32261 6.79233 4.51757 1.22725
7782 1 1 8.72288 6.17322 4.98859 1.6163
564 1 1 11.4941 6.96691 2.12796 0.41263
6538 1 1 10.9381 6.511 4.32239 2.49409
1927 1 1 10.8431 5.16488 3.47552 2.35117
1051 1 1 15.567 6.89982 3.97147 0.129337
7611 1 1 14.1971 7.20895 4.47648 2.6153
285 1 1 13.8358 6.20712 3.52537 1.09186
5812 1 1 15.9953 3.6675 2.59023 1.33196
108 1 1 14.8356 6.15943 2.90846 0.23132
602 1 1 15.7524 5.76849 4.01319 1.03824
1338 1 1 17.3697 6.84574 3.24046 1.13878
928 1 1 17.911 6.82799 4.01479 2.65214
1399 1 1 1.22877 7.02353 2.58051 1.5831
2747 1 1 0.594354 7.65628 3.67529 1.05935
996 1 1 1.75419 10.1588 4.67183 0.405439
357 1 1 3.14799 8.69607 4.27649 0.857625
626 1 1 4.03246 8.28373 4.50952 3.59449
983 1 1 5.42701 8.62712 3.34452 4.62795
568 1 1 6.93696 7.7617 3.2185 2.85301
344 1 1 6.53178 8.68044 4.66424 2.13353
2980 1 1 8.94075 7.49922 3.81036 0.621785
7322 1 1 9.11595 6.43647 3.53836 0.767013
1784 1 1 9.58891 6.4333 4.3637 0.898904
648 1 1 12.2046 8.37157 5.37118 0.98274
738 1 1 13.0231 9.14538 2.02957 3.47277
1802 1 1 13.0416 8.25876 2.93082 0.471131
1513 1 1 14.3345 9.19368 5.46869 1.44053
596 1 1 14.9788 9.202 3.8262 3.25713
235 1 1 16.8736 6.7604 2.44682 1.04605
240 1 1 17.1958 7.98965 4.0865 1.60842
6875 1 1 0.0559019 7.54283 1.79912 1.21502
2798 1 1 1.88422 10.0019 3.45808 0.712182
134 1 1 1.77164 8.89499 4.36571 0.828919
440 1 1 2.93574 10.2354 3.63305 0.411903
1417 1 1 4.05792 8.51211 5.55016 1.27564
1001 1 1 6.09877 9.68633 2.5029 0.480113
604 1 1 5.96001 8.21935 2.56986 2.39645
1211 1 1 8.05831 8.72878 3.41068 1.40139
95 1 1 8.11124 9.89637 3.10385 1.35215
345 1 1 10.012 8.42677 3.35918 0.325961
1460 1 1 12.1365 8.58737 1.75259 2.17557
7867 1 1 12.2812 8.90685 3.89117 1.74977
241 1 1 12.1492 9.88512 4.00832 1.25484
1250 1 1 14.5515 9.40219 2.53403 1.08093
2587 1 1 14.0714 8.8333 3.9238 0.666009
790 1 1 15.1909 9.99494 3.07682 0.40928
7470 1 1 14.0091 10.4295 4.63426 1.19045
6561 1 1 16.2541 8.8632 3.4023 1.11459
7432 1 1 0.314172 8.82645 2.64333 0.484698
1113 1 1 17.097 8.30947 5.50218 1.51219
863 1 1 0.689427 10.3972 5.12739 1.47731
7721 1 1 4.14214 9.63209 3.66252 0.606041
1093 1 1 1.39553 12.0297 3.48482 0.941624
7474 1 1 1.57456 13.0234 4.674 1.27342
399 1 1 2.77036 11.0305 2.88297 1.5926
2882 1 1 5.23541 9.87629 3.44217 1.14898
970 1 1 3.5387 10.6169 5.05512 3.71956
7862 1 1 3.55969 11.3375 4.25016 4.03726
2265 1 1 6.28448 9.2978 3.5578 0.0390271
1727 1 1 7.74945 12.274 2.92353 0.899616
478 1 1 7.33922 11.7919 2.10842 4.43849
825 1 1 10.268 9.55389 3.47495 5.80309
1296 1 1 9.49086 9.54619 2.7086 2.27278
7573 1 1 9.30167 8.49246 1.86207 1.69982
378 1 1 10.9942 11.9692 2.25486 0.0393784
1332 1 1 12.3556 9.24256 2.69797 1.00886
1438 1 1 13.4681 11.2929 4.21296 4.39303
7979 1 1 13.5546 11.2106 5.33254 4.1681
1189 1 1 14.519 11.4237 4.71006 0.107268
1072 1 1 14.0851 10.6602 3.23878 1.68722
1143 1 1 15.7846 9.46759 1.81021 0.756851
1728 1 1 17.8616 9.31312 3.39183 0.85856
622 1 1 0.27989 10.134 3.49961 0.863831
1280 1 1 18.0665 13.2133 4.77856 6.21635
1895 1 1 4.28162 15.67 2.63018 1.68951
7863 1 1 18.6967 13.634 6.05013 1.92862
800 1 1 4.0145 15.1502 3.91875 4.6991
7011 1 1 0.835089 14.1484 3.98249 2.85046
1178 1 1 6.06593 10.7514 3.86449 2.67059
1163 1 1 2.11519 14.1593 4.22723 2.9858
1448 1 1 6.26174 13.1619 3.50002 0.479011
699 1 1 7.3234 13.1443 3.76309 0.168578
163 1 1 9.7662 14.248 2.7439 1.13605
1226 1 1 8.84199 12.1558 3.13998 0.420045
823 1 1 9.78548 13.3777 1.79744 0.53711
1504 1 1 9.41315 11.339 6.24831 3.28834
7138 1 1 14.2151 12.163 2.92192 4.60354
1799 1 1 13.276 13.7627 3.61328 2.59031
991 1 1 15.9637 11.8377 2.82777 2.5656
303 1 1 16.2765 11.5119 4.3343 1.60924
302 1 1 14.7251 13.88 4.59318 0.719052
6563 1 1 16.7172 11.3018 2.51732 0.475305
1079 1 1 0.00477187 12.2519 3.02974 0.344796
918 1 1 18.6364 14.1154 4.34927 1.08305
7754 1 1 18.2763 15.1785 6.3413 1.69767
642 1 1 18.4822 15.1627 4.24959 1.81835
7051 1 1 3.13726 13.9281 2.83306 1.36659
7515 1 1 0.618297 13.7681 5.08219 1.42138
6531 1 1 4.1079 15.4234 4.96462 1.92408
6536 1 1 5.39224 13.3178 5.72808 1.20941
7210 1 1 3.84887 12.5671 3.92025 1.45156
7139 1 1 7.22052 13.9045 4.4663 1.59194
221 1 1 8.52219 15.112 3.81394 0.399937
1848 1 1 10.5448 13.2018 3.00226 0.285151
284 1 1 9.31221 17.0283 4.18949 2.50423
64 1 1 10.48 11.9728 3.15039 0.0553494
1100 1 1 11.0925 12.371 5.12101 2.49199
7705 1 1 12.4546 13.221 1.62824 1.49285