ITEM: TIMESTEP
2300
ITEM: NUMBER OF ATOMS
8000
ITEM: BOX BOUNDS pp pp pp
0.0000000000000000e+00 1.8820720577620570e+01
0.0000000000000000e+00 1.8820720577620570e+01
0.0000000000000000e+00 3.7641441155241139e+01
ITEM: ATOMS id mass type x y z v_temp
351 1 1 1.03802 1.23626 1.17473 2.39804
1198 1 1 2.15677 0.857179 0.389553 2.09946
1116 1 1 2.76679 0.305858 1.43587 1.12584
6280 1 1 3.05907 1.24941 2.11271 0.184083
6076 1 1 4.53605 0.557346 36.958 2.85271
7613 1 1 5.09897 17.6379 1.44572 4.70891
775 1 1 7.30276 2.12981 1.61701 4.32284
6363 1 1 6.21918 2.35772 1.24494 2.82112
175 1 1 8.78312 0.413733 0.0281901 0.919554
934 1 1 7.48942 0.667113 0.328053 2.14514
1416 1 1 7.96431 18.6091 1.62533 3.17218
6582 1 1 10.9631 0.658567 1.69356 1.01136
1139 1 1 11.7713 1.69945 0.194564 0.602761
7873 1 1 11.318 18.5949 0.721688 0.748942
352 1 1 13.1856 18.2919 36.862 0.705484
1377 1 1 14.5663 1.31075 1.05944 6.356
7568 1 1 13.7055 0.0124303 0.217901 1.37164
1186 1 1 16.6017 17.9224 1.7542 0.927318
1265 1 1 16.0256 1.94808 37.4987 0.767297
126 1 1 15.5089 0.638955 0.233107 0.405602
791 1 1 18.0313 0.277766 0.929455 0.829088
1999 1 1 18.1762 18.0275 0.97546 0.506346
383 1 1 18.1102 2.31288 36.858 3.14113
7930 1 1 17.9243 1.64305 0.937926 1.11182
6845 1 1 17.5595 1.4777 37.4259 1.16649
31 1 1 0.241913 2.66666 2.63251 1.12715
1739 1 1 1.99949 1.52176 1.28693 1.77565
7604 1 1 2.95353 2.04035 0.723056 0.661514
155 1 1 4.48559 0.185925 1.30129 0.368946
7785 1 1 4.89081 2.09222 1.64419 0.584829
1446 1 1 7.22395 1.93281 0.359752 1.02801
217 1 1 7.73507 3.40479 37.317 1.93332
418 1 1 8.22456 2.45619 1.48373 2.49874
726 1 1 10.0168 2.24445 1.05823 0.496014
2348 1 1 11.0473 2.05354 1.49141 0.60925
1333 1 1 12.8115 1.96269 37.5516 1.04891
515 1 1 12.8036 1.78619 1.02999 0.86073
7745 1 1 13.873 1.17428 0.543199 1.76888
1270 1 1 14.0134 2.59668 1.37482 1.19547
6850 1 1 13.2098 2.9785 37.4557 1.52057
1037 1 1 15.9947 1.31167 0.899294 1.75959
1315 1 1 16.9012 0.530803 1.00447 2.57368
6006 1 1 0.573112 3.92578 1.40237 1.77598
508 1 1 1.61171 1.97969 0.488551 1.84234
1045 1 1 0.276634 5.86675 1.71405 3.59684
875 1 1 1.71607 3.8384 0.21873 0.837776
7718 1 1 3.19775 3.85215 0.226532 3.16709
6152 1 1 5.74952 4.19512 1.43011 2.66132
1348 1 1 5.29025 3.20069 0.886258 0.296385
6026 1 1 3.67206 4.1341 2.22826 1.03641
1850 1 1 7.28473 3.01535 0.711546 0.351766
1381 1 1 9.05724 4.7583 36.8599 2.41074
7861 1 1 8.09912 3.68289 0.873988 0.271249
7032 1 1 10.2819 3.93415 0.996878 0.811717
1661 1 1 9.98532 3.19866 1.85585 2.39551
7588 1 1 12.242 4.1505 0.898634 2.22534
6060 1 1 11.7026 4.78412 2.23205 1.1634
1806 1 1 14.4183 3.28594 0.551054 2.37862
7155 1 1 13.4749 3.86211 0.692808 0.377798
437 1 1 12.6828 3.70376 37.17 1.17353
7301 1 1 14.3058 1.77889 37.523 1.40592
2221 1 1 15.7499 3.42712 0.144533 0.859615
7468 1 1 14.8858 3.63403 1.51333 0.283983
5355 1 1 16.469 3.99286 0.92609 3.30474
223 1 1 0.0706823 5.28387 0.105511 1.46318
2033 1 1 0.292872 3.65313 2.34368 10.1595
1401 1 1 0.895258 4.04668 36.5427 5.79711
7697 1 1 3.38962 5.37015 0.204125 0.382481
936 1 1 2.93969 5.00883 1.50441 0.414826
7904 1 1 3.60967 4.97852 36.8322 1.93016
582 1 1 6.37689 3.37377 0.122758 0.964063
6922 1 1 9.35444 4.67526 0.542953 0.578693
7748 1 1 6.74185 5.32417 0.253799 2.63576
7387 1 1 7.75693 4.97179 1.1953 0.368988
6703 1 1 9.21449 3.35411 1.1322 1.71194
6551 1 1 10.6949 4.58152 37.4272 3.55348
7408 1 1 12.1782 4.50595 -0.010569 3.74673
6044 1 1 12.9598 5.02475 0.60721 1.1226
271 1 1 14.5445 4.92055 1.71035 4.8789
7320 1 1 14.175 3.79152 37.2373 5.46215
7115 1 1 14.83 4.31046 0.214881 2.0162
1329 1 1 16.6569 5.03508 0.663413 1.32879
103 1 1 16.4622 6.22465 0.812964 0.919408
7091 1 1 15.8074 6.48614 37.5262 1.31761
7717 1 1 18.5683 6.56674 1.24246 6.45215
6161 1 1 1.23126 6.61378 37.2035 0.333491
137 1 1 17.7592 7.38239 1.99006 1.10961
7507 1 1 1.37819 7.24714 0.688446 2.82241
1409 1 1 1.4124 6.91812 2.03054 1.21699
7942 1 1 0.985988 7.59087 37.489 2.65998
6971 1 1 3.39187 8.20562 2.27649 0.572368
72 1 1 1.92389 8.75993 37.1255 0.308656
190 1 1 4.44634 6.25714 36.3415 1.84537
6605 1 1 2.88909 6.23616 2.86771 0.518804
7215 1 1 3.52728 4.78286 3.03338 2.97095
294 1 1 6.3889 6.51402 0.494182 9.46802
7944 1 1 4.58936 6.14554 2.55347 2.28409
5747 1 1 6.79998 4.14674 1.86295 0.708587
429 1 1 8.75735 7.24422 37.0418 0.0753599
7094 1 1 10.1622 7.4855 2.36679 1.36063
21 1 1 9.39649 5.91294 36.8528 0.955517
61 1 1 10.549 5.61274 37.5973 1.91242
6619 1 1 12.4075 7.42064 1.34196 3.00306
550 1 1 11.7838 5.03371 1.09107 1.23165
533 1 1 11.199 5.8791 1.51601 0.731458
1664 1 1 14.4588 6.13225 1.44904 0.998518
486 1 1 14.3914 7.19404 2.71424 2.68791
591 1 1 15.4541 6.57207 2.15512 0.79129
164 1 1 15.3908 3.51348 36.7842 1.575
762 1 1 17.5067 8.11025 37.4777 2.05048
6476 1 1 15.5053 6.6364 0.883152 2.60139
5857 1 1 17.1225 6.87301 37.0693 2.33503
354 1 1 5.16733 6.71652 37.1826 3.80014
6987 1 1 3.4275 7.48022 36.9489 1.04039
6874 1 1 8.05431 8.18682 1.74039 0.896984
1415 1 1 4.59824 7.05403 2.03722 7.39391
615 1 1 7.84426 8.60002 0.266195 1.70522
7740 1 1 8.31604 9.47816 -0.00454358 2.18318
7958 1 1 10.8124 7.30645 37.3589 1.24158
973 1 1 11.1086 8.28589 2.27286 0.795749
6463 1 1 10.352 7.91723 0.660864 0.42668
91 1 1 15.1381 7.30978 1.38348 0.465575
1193 1 1 13.3235 7.79332 1.44081 0.94317
276 1 1 15.8405 8.45629 37.5749 0.660522
5649 1 1 18.6094 8.54976 0.161462 1.87506
371 1 1 16.7233 7.75027 0.534715 1.16761
1360 1 1 2.8972 9.39389 0.539466 1.57205
6196 1 1 2.5398 8.87394 1.59535 1.82865
6762 1 1 1.54549 10.9071 1.81203 1.18286
6126 1 1 4.72711 10.686 37.3889 0.59726
834 1 1 3.52877 10.9824 0.268508 0.667286
7326 1 1 6.42782 8.56679 2.15207 0.0362576
1681 1 1 4.94581 9.43779 1.31441 0.468022
6584 1 1 7.98616 10.4561 0.91242 3.20562
7065 1 1 6.82951 9.32695 0.890219 1.4113
7943 1 1 9.52962 10.3484 1.35807 1.16146
1781 1 1 7.76288 9.24369 2.20093 3.74219
6497 1 1 9.90752 9.31293 1.51212 0.652406
7866 1 1 11.0522 9.11097 0.238527 0.294313
6699 1 1 11.9863 9.32526 37.3901 0.970949
574 1 1 12.203 9.53186 0.923139 0.826756
7266 1 1 13.0993 8.43371 0.579319 1.08061
7983 1 1 14.172 8.84772 0.855883 1.64449
7021 1 1 17.5507 8.9335 0.652734 1.30142
6599 1 1 17.3913 10.9147 36.6327 1.71647
6159 1 1 16.8805 8.93269 1.48625 0.273004
86 1 1 0.231542 10.2485 0.328277 1.86354
7621 1 1 4.48268 11.4299 1.98012 0.384405
7967 1 1 1.50996 11.392 0.903669 3.11466
7047 1 1 3.85499 9.7992 0.721357 1.12184
6656 1 1 4.14931 10.3502 36.6756 1.83958
955 1 1 6.12007 10.9706 1.19768 0.335506
6842 1 1 7.78308 11.8922 1.75331 4.00831
7002 1 1 8.81346 10.4123 0.322105 1.70488
1790 1 1 7.02456 11.0355 0.414866 0.592997
6380 1 1 4.2148 8.05464 36.8384 0.963864
6933 1 1 9.49852 8.57319 0.916302 5.68669
721 1 1 10.1043 9.6161 0.0923366 0.096857
6752 1 1 9.69099 11.7751 0.492765 1.05462
6527 1 1 10.4646 11.6867 37.0349 2.90917
38 1 1 12.9267 10.9057 1.15687 2.92881
678 1 1 10.2179 10.8472 37.6232 0.636791
423 1 1 14.1791 10.0486 1.35554 1.62336
1074 1 1 14.5055 9.92938 0.329973 0.989672
1068 1 1 14.7452 10.7148 36.4678 3.32108
969 1 1 16.0045 10.986 0.802944 3.23475
1349 1 1 17.5711 10.4504 0.610644 0.547985
634 1 1 0.281087 12.4198 0.120916 0.373005
7772 1 1 0.200964 11.1215 1.43835 1.75417
7836 1 1 0.254446 11.7373 36.094 4.41611
7855 1 1 1.03306 12.9343 1.61274 1.01949
549 1 1 3.21353 12.8867 37.2051 0.715457
773 1 1 1.84474 12.8702 1.065 0.599173
7056 1 1 3.37983 13.0486 1.65061 0.810176
8000 1 1 6.73501 11.951 1.26762 0.0839454
7854 1 1 5.52214 9.49494 0.407492 0.581373
1432 1 1 6.78315 12.6854 0.411925 0.553231
829 1 1 7.45459 13.8871 0.660814 1.08312
10 1 1 8.5797 11.4471 0.869888 0.425544
6399 1 1 9.72391 14.7991 0.296139 1.03328
6939 1 1 10.5641 12.3972 0.153966 2.94256
1103 1 1 11.938 15.0695 0.980315 0.71194
236 1 1 10.3346 12.7241 36.3267 1.40627
7548 1 1 15.2009 12.0326 0.803379 0.943424
2320 1 1 12.7402 11.653 1.87911 1.11289
6590 1 1 14.5451 13.0292 1.72345 3.00413
7993 1 1 15.8363 11.4634 37.3743 1.87037
2353 1 1 15.1884 11.8319 1.79104 1.49627
7670 1 1 17.0063 12.5395 0.967014 0.478327
1676 1 1 17.0804 11.7397 1.69213 2.08007
1567 1 1 18.0651 13.353 37.2057 3.08059
7947 1 1 1.81411 13.4443 1.9098 4.54139
962 1 1 17.952 13.487 0.830692 1.59079
4804 1 1 1.58737 14.7151 2.17876 1.34967
7957 1 1 1.5057 15.1197 3.17445 7.01189
1350 1 1 3.98515 13.6544 0.478098 0.871483
7217 1 1 4.31931 15.9223 0.496903 1.17684
6232 1 1 4.68987 12.65 1.32833 1.74353
287 1 1 5.49107 12.4475 36.3766 4.59935
7248 1 1 5.72317 15.5061 0.938301 0.819259
239 1 1 7.58518 15.0619 1.98361 1.60733
1144 1 1 11.1112 14.8609 0.21464 0.259408
1295 1 1 7.86281 13.7858 1.73318 0.732586
976 1 1 13.8054 13.7332 1.51377 3.2848
7680 1 1 12.7147 15.7848 0.353182 2.53886
297 1 1 15.4147 13.7223 0.553437 1.35252
7052 1 1 13.9371 14.9659 0.86916 1.43727
7853 1 1 0.295021 13.9727 0.677123 3.0584
2409 1 1 18.4432 14.7111 1.04322 2.17028
7338 1 1 17.0727 12.7864 2.08141 4.64962
1529 1 1 17.0579 15.858 0.604581 1.55635
7926 1 1 1.6425 15.7636 0.140546 0.389484
686 1 1 1.50846 16.4351 1.94061 0.241653
7101 1 1 0.701162 16.4334 0.703418 0.898767
7454 1 1 2.60314 15.3329 35.9544 2.54125
558 1 1 3.42977 13.8873 2.12282 1.61381
1481 1 1 4.58682 16.8414 0.0998712 2.47927
844 1 1 4.87099 15.2377 37.3871 0.770472
1210 1 1 7.5554 14.7514 0.117548 0.904077
7891 1 1 10.4391 15.5602 0.827275 1.10288
7180 1 1 10.8098 15.1265 1.71953 0.837492
7543 1 1 13.7971 15.8003 0.193462 1.43886
389 1 1 14.7338 15.7142 1.03911 1.61862
432 1 1 14.2911 14.8672 1.88127 2.40538
653 1 1 15.7891 16.2541 0.830449 0.136679
393 1 1 16.038 14.2406 37.366 0.576221
7390 1 1 16.1279 15.5876 37.4394 0.771894
1406 1 1 16.4637 15.2887 1.37475 0.236194
579 1 1 17.791 15.0465 0.412747 1.14324
7451 1 1 0.707513 17.9095 1.34147 3.49321
1569 1 1 0.998867 0.420402 36.528 0.594668
757 1 1 2.48414 16.75 0.575931 2.2568
7569 1 1 4.48076 15.8168 36.6411 0.478865
1729 1 1 5.37713 14.197 1.30273 2.51103
605 1 1 5.64925 17.3892 0.574456 2.34198
1995 1 1 6.54218 16.2875 0.797812 0.590856
7303 1 1 7.12782 17.5162 1.95176 1.14773
1582 1 1 7.34129 16.5489 36.9886 1.593
13 1 1 6.50782 17.6961 0.942232 0.952972
1206 1 1 11.1512 17.9645 37.5606 2.96236
6851 1 1 8.67991 14.8929 0.0796993 1.38244
7452 1 1 11.0836 16.2892 2.01626 2.72494
7149 1 1 12.0551 17.1508 1.41595 0.196895
433 1 1 12.0873 14.8922 2.55959 1.53142
7341 1 1 14.4978 16.7398 36.6983 0.923524
1110 1 1 17.1911 15.8693 1.97615 1.23359
356 1 1 15.0288 16.4097 0.0551042 0.165207
629 1 1 15.4778 14.9469 0.362634 0.474316
1042 1 1 17.0425 16.8455 1.54282 0.364107
5999 1 1 17.2816 16.8465 0.256409 1.72855
7892 1 1 0.70579 17.7819 36.7045 1.24929
129 1 1 1.75602 17.4635 37.4492 0.168574
6688 1 1 2.68175 17.7849 1.22346 2.01625
692 1 1 3.81552 18.3382 0.767655 0.825379
6713 1 1 3.02686 18.2542 0.0608674 0.187964
7404 1 1 3.48094 15.6903 1.8051 2.52158
835 1 1 5.19165 16.6463 36.5182 2.20815
6835 1 1 6.14302 17.02 37.425 0.365429
566 1 1 6.61098 0.0992903 1.93822 0.696466
6914 1 1 8.22269 18.1052 37.149 2.31938
5985 1 1 12.1092 17.0706 0.199056 1.17494
472 1 1 11.7206 18.0088 1.99023 1.38049
7672 1 1 12.9033 18.0196 0.415636 4.48615
2287 1 1 16.4503 18.167 37.2152 1.3425
6092 1 1 13.706 17.6702 0.85358 1.21602
7106 1 1 17.6821 18.3044 36.4216 3.31046
7202 1 1 17.6911 18.7818 37.3972 2.5821
2662 1 1 18.403 17.4939 36.7562 1.10566
7261 1 1 0.0868846 16.4393 37.0042 1.10736
194 1 1 18.76 1.24783 1.91905 0.648514
954 1 1 0.789459 0.195973 2.27571 3.20976
643 1 1 2.41665 2.71997 1.43047 1.44073
7818 1 1 4.20718 18.0868 1.77849 5.02578
3146 1 1 4.06728 0.897029 2.06437 1.38886
1279 1 1 2.13562 0.711148 2.36737 0.709814
7166 1 1 5.2694 0.115938 2.19196 3.39251
1140 1 1 6.08869 0.893841 2.92657 0.551498
895 1 1 7.13564 1.08527 1.35634 0.266388
700 1 1 10.8099 0.84254 4.18985 1.44763
6986 1 1 9.58853 17.9463 2.7358 4.63083
1708 1 1 10.5398 18.4482 2.51578 2.43541
505 1 1 14.6501 0.363871 0.750786 0.84464
2106 1 1 12.4068 18.7902 1.14279 1.39345
640 1 1 12.6851 17.8874 3.63068 1.83176
7440 1 1 15.0857 0.705093 1.8523 0.0721994
1928 1 1 18.6159 18.6308 2.39973 0.652926
1672 1 1 18.5235 0.649332 2.97208 0.5934
7992 1 1 1.41294 3.03015 1.67343 1.47697
7938 1 1 1.91177 3.82573 1.27018 3.52837
656 1 1 4.3574 2.05397 2.9591 0.692012
489 1 1 3.77351 1.99996 1.40875 1.81135
1309 1 1 4.92314 1.34394 2.39038 1.36376
6942 1 1 6.59378 1.09316 0.2502 0.439614
7535 1 1 8.09117 1.18776 3.38764 1.16299
7332 1 1 8.74093 1.04483 1.53782 2.13211
6477 1 1 8.58379 2.37804 2.85867 1.25112
94 1 1 9.88151 2.26673 2.71421 1.68073
6659 1 1 9.21882 1.88801 1.53912 0.821423
82 1 1 8.27682 3.33137 2.3933 1.8863
1993 1 1 9.77002 1.21094 2.09057 0.698563
511 1 1 12.7552 0.89676 1.77736 0.618811
1339 1 1 11.8587 1.17046 1.56105 2.83384
122 1 1 11.5542 1.78684 2.4948 1.49044
3071 1 1 13.7335 3.87491 1.66285 2.43835
1183 1 1 14.4626 1.08621 2.99383 0.893127
1591 1 1 16.1088 0.529248 1.90518 0.300248
149 1 1 15.5312 1.56631 2.34467 0.104424
1020 1 1 16.3359 2.75215 1.43517 1.55336
7088 1 1 18.09 2.46751 2.02518 2.59538
7841 1 1 1.82407 3.45828 2.64086 0.478628
366 1 1 1.23183 4.35594 2.47296 2.5737
406 1 1 2.60742 3.90991 1.98174 0.470623
509 1 1 0.967872 4.46094 3.86709 1.03261
2824 1 1 4.16559 2.81351 0.69773 0.476986
3 1 1 5.98373 4.82158 2.48497 2.62693
1237 1 1 4.71212 3.90514 2.63704 2.0698
7503 1 1 5.40701 5.6171 0.656207 0.962351
7663 1 1 6.18279 3.02214 3.13403 1.87886
7653 1 1 9.25624 4.93958 1.80673 0.876314
661 1 1 7.4997 3.28227 1.67248 0.591777
56 1 1 6.9174 1.19653 3.25221 0.54982
570 1 1 8.49838 4.20361 3.43862 4.86317
3337 1 1 11.7645 3.1838 1.81157 2.44656
1648 1 1 10.7513 2.80095 2.53818 1.29165
980 1 1 12.4813 2.06533 2.37622 0.366031
1239 1 1 14.0405 4.93709 0.769268 4.48588
6241 1 1 15.1495 2.70087 1.96251 0.545146
651 1 1 16.3226 3.94703 3.5119 1.0166
115 1 1 18.0308 3.93697 1.79908 4.46668
7937 1 1 18.5794 2.78977 3.80013 3.69897
314 1 1 18.2847 4.52316 2.65497 0.692557
7284 1 1 18.7264 4.87517 1.44082 0.214756
7631 1 1 3.06282 4.25192 4.18566 0.453428
68 1 1 2.33718 6.41903 0.520549 0.166143
7660 1 1 2.28332 4.41542 3.52899 1.44942
1714 1 1 6.76766 6.00607 1.3092 0.732818
7643 1 1 8.10446 4.69521 2.55287 1.17157
7644 1 1 10.6332 3.98889 2.30742 1.00006
553 1 1 12.2169 5.26344 3.07964 6.08485
7348 1 1 12.796 4.35986 1.70478 0.926053
588 1 1 13.0673 5.3349 3.52867 0.711853
1826 1 1 13.0009 5.22205 2.22182 0.351993
1833 1 1 14.508 6.00152 2.40967 0.404325
469 1 1 15.4816 5.62167 1.40264 2.89012
7358 1 1 16.7621 4.40156 2.12915 2.66154
802 1 1 17.8709 6.18847 2.06886 0.357938
7659 1 1 17.6729 5.07898 2.06012 0.993563
3092 1 1 17.544 5.03809 3.20844 0.108173
1287 1 1 17.7594 6.8985 3.97812 2.11664
5817 1 1 2.81954 6.78525 3.7233 1.29896
7242 1 1 1.62563 6.45256 3.28821 0.735022
7803 1 1 1.91916 5.83552 2.33462 0.0737716
7738 1 1 4.63149 4.94116 2.78641 2.28302
1596 1 1 2.88488 7.46167 2.83526 0.528134
1427 1 1 3.74669 5.99687 1.99784 0.477155
214 1 1 6.68616 6.17972 3.00345 0.293774
1076 1 1 9.18085 6.08312 1.41892 0.415598
1369 1 1 8.83174 5.0894 4.01238 0.122058
117 1 1 9.99434 6.0719 2.24592 0.519969
7625 1 1 10.4038 5.24862 1.92866 0.267696
7972 1 1 12.1042 5.8736 4.1399 0.404478
140 1 1 12.1612 5.59838 1.95888 1.64053
7719 1 1 13.1434 6.47287 1.25287 2.4222
7185 1 1 14.601 5.23421 3.23801 0.446847
1537 1 1 16.4397 7.75402 1.67339 3.67279
7544 1 1 15.496 5.07407 2.45532 0.855038
6995 1 1 18.6154 8.59516 3.52916 3.33529
6975 1 1 2.75519 10.0253 2.65713 2.19275
1562 1 1 0.404376 7.41874 1.72311 1.61293
926 1 1 1.13039 7.93921 2.45021 0.726081
7472 1 1 2.43307 8.76814 3.21554 1.87272
925 1 1 4.63666 8.39985 1.84655 1.66451
529 1 1 5.92036 8.80974 0.987849 1.46061
1547 1 1 5.1625 9.19312 2.40423 0.645235
1224 1 1 7.89495 6.1786 1.37478 5.23305
1194 1 1 8.56056 9.42097 1.5607 0.261544
1107 1 1 10.1407 6.47782 3.40186 0.827071
6566 1 1 9.15468 7.64092 2.57914 0.84489
519 1 1 11.5525 7.64515 3.4979 0.999779
2244 1 1 12.0214 7.98327 2.03087 0.468499
277 1 1 11.0772 7.04573 1.57609 0.457391
5690 1 1 13.5774 7.85504 2.6186 0.308269
543 1 1 14.3923 8.28155 2.87883 0.447758
102 1 1 15.7148 7.73531 2.46321 1.76203
913 1 1 15.9822 8.74636 1.01481 1.08352
669 1 1 16.8806 8.46758 2.58694 3.63102
6675 1 1 17.5257 7.67716 3.23689 0.575708
107 1 1 17.8379 8.95325 4.25891 1.37951
1036 1 1 1.8038 10.0228 1.46614 1.07065
178 1 1 2.35327 10.8936 4.44574 1.05238
1863 1 1 3.96716 9.38654 2.49047 0.658132
369 1 1 4.00229 8.45697 0.860844 0.1619
2311 1 1 5.50481 9.12162 4.324 1.4956
1046 1 1 5.78571 9.69508 1.59956 2.40639
238 1 1 8.21213 10.2857 2.05646 1.85285
985 1 1 9.03438 8.95854 2.50633 2.38768
7538 1 1 8.31104 10.9594 4.04309 1.10183
341 1 1 10.6336 7.81113 3.95292 2.02183
7156 1 1 10.0972 10.309 2.32354 0.749448
610 1 1 11.4978 8.6787 1.41214 1.20126
1487 1 1 11.695 10.4968 2.90203 1.39336
7945 1 1 14.6765 8.46285 1.80179 1.72135
1906 1 1 15.2819 8.63083 3.28206 1.88796
79 1 1 16.6531 10.6636 1.61258 0.559138
247 1 1 1.22995 8.48758 1.11216 2.28208
7851 1 1 18.736 11.7116 2.19561 1.01263
230 1 1 0.431415 10.1662 2.13253 0.30293
300 1 1 1.78653 11.0099 3.4527 0.358922
7966 1 1 2.58589 10.989 1.97151 2.29873
445 1 1 3.84126 12.7887 2.53541 1.04406
765 1 1 2.87408 10.0567 1.429 0.556267
340 1 1 3.83604 10.2911 2.00886 1.75183
1264 1 1 4.69767 10.786 2.68031 1.09831
481 1 1 5.71043 11.4394 2.88728 2.53228
1389 1 1 5.40856 10.3519 4.49327 0.989177
7335 1 1 6.86868 10.0619 1.58405 4.04656
4198 1 1 9.20809 10.7614 2.68012 0.437324
1069 1 1 11.3434 10.1166 1.91855 0.472289
2814 1 1 9.04262 11.3191 1.87778 1.40202
1385 1 1 10.1799 11.5031 2.49235 1.52288
6693 1 1 13.0531 9.80147 1.53035 2.89153
386 1 1 11.7847 11.0309 1.69625 2.03011
7913 1 1 15.1946 9.43497 1.27613 2.31294
374 1 1 12.9346 10.8568 2.90607 2.4682
818 1 1 14.3831 11.0199 1.90255 0.623494
1234 1 1 17.8211 11.4647 4.32339 1.82678
7800 1 1 16.5166 10.3678 0.11756 0.943638
336 1 1 18.5252 12.0695 1.09008 1.10617
7089 1 1 18.2918 10.4704 1.80848 3.14677
259 1 1 2.10283 12.0985 1.75154 0.962829
245 1 1 1.57248 13.7377 2.84915 4.36578
7811 1 1 3.03823 12.3241 3.21966 0.418518
584 1 1 5.28025 12.3061 3.54049 1.02348
704 1 1 5.64315 12.104 1.71528 3.33505
769 1 1 7.04941 12.7525 1.83993 1.47
6646 1 1 2.78974 13.298 2.54719 1.39723
815 1 1 6.81474 14.0369 1.72111 3.34977
1542 1 1 7.84602 12.9221 1.07746 1.72308
7704 1 1 8.86923 12.6479 1.93337 1.22131
1475 1 1 8.30489 13.3853 3.08692 0.882489
7459 1 1 8.22911 11.0679 2.86562 0.368185
563 1 1 9.63722 12.2573 1.31085 0.769191
734 1 1 9.41361 13.2684 3.25891 2.88026
6723 1 1 10.7769 12.9068 1.04986 5.5015
7004 1 1 10.7344 10.8615 1.49688 1.24359
7834 1 1 13.694 12.7318 3.06151 0.293105
2150 1 1 10.9156 11.5831 0.696402 2.17178
627 1 1 16.3577 12.4875 2.80654 1.31931
1514 1 1 16.0984 12.6818 1.58964 2.19951
712 1 1 15.2225 12.905 5.51989 4.1529
234 1 1 17.73 13.6207 1.87666 0.927864
1082 1 1 1.07934 11.7401 2.37754 1.34252
1971 1 1 0.242473 13.7232 1.90262 1.42748
6459 1 1 4.07502 13.8583 3.06007 1.09193
7060 1 1 5.12302 13.3607 2.15695 1.83478
6600 1 1 6.01226 12.7371 2.52287 1.39861
487 1 1 7.19533 13.7819 2.61365 3.96029
365 1 1 6.90523 15.4144 2.77852 0.884732
53 1 1 7.68649 14.0145 3.91555 0.378535
1165 1 1 8.85206 12.6689 0.701385 2.44659
7984 1 1 9.92343 14.4868 1.43361 1.05448
286 1 1 10.809 13.9483 0.759261 0.290105
416 1 1 11.6942 13.5345 1.6956 0.121964
6750 1 1 14.1777 13.8835 2.43546 2.26529
1187 1 1 13.7462 12.323 1.52656 0.980909
1904 1 1 13.0657 14.7974 2.6893 0.381432
7444 1 1 16.0211 14.4285 1.48186 1.56153
375 1 1 16.6381 14.5694 0.625582 4.89319
1282 1 1 0.535671 15.2626 0.853377 2.35715
1561 1 1 2.83256 15.2679 2.59701 0.261895
785 1 1 4.29807 14.5945 1.81138 3.29888
504 1 1 4.5067 16.4823 2.14034 0.943125
1527 1 1 5.16179 16.5856 1.28261 1.12012
2046 1 1 6.36993 16.9811 3.43552 2.65907
7489 1 1 5.88486 15.2849 2.01304 0.408015
885 1 1 6.33753 14.5146 3.03353 1.71411
902 1 1 6.19401 16.0468 4.4844 3.49193
1940 1 1 8.00833 15.9972 3.21098 2.85385
2224 1 1 11.7212 16.2442 0.796658 1.22467
961 1 1 8.1527 15.9485 1.22941 0.44598
7893 1 1 10.8573 14.451 3.1594 2.04295
7757 1 1 15.5872 15.5171 1.81324 0.322819
93 1 1 14.959 14.2414 3.15528 0.631717
1077 1 1 16.1911 13.9618 2.72251 0.236541
1614 1 1 16.7609 15.194 2.54729 1.17925
7951 1 1 0.455892 16.1275 1.69449 0.666319
7116 1 1 18.1923 16.1711 2.10277 2.20586
439 1 1 2.47417 15.8239 1.07451 3.03187
1634 1 1 2.45261 16.8738 1.78093 0.718591
7934 1 1 3.2927 16.9253 2.40853 1.00917
763 1 1 5.99193 17.3981 1.75683 2.05927
7620 1 1 9.60544 15.9309 1.47208 0.135912
1196 1 1 9.96364 18.2327 1.60475 1.00101
338 1 1 10.6914 15.6107 2.99555 2.87548
1167 1 1 12.7705 15.9707 2.84828 2.19449
7163 1 1 14.1943 16.5273 1.00333 0.935355
820 1 1 13.8114 15.7272 2.50249 1.07916
1308 1 1 14.3385 18.3549 1.55851 0.773896
1479 1 1 15.3512 16.3345 2.46503 2.09104
1638 1 1 18.1742 16.9331 0.905671 5.78312
328 1 1 1.4417 18.6251 0.683241 1.06807
859 1 1 0.185487 0.634611 0.759712 0.436507
611 1 1 3.08652 17.7834 3.44121 1.58001
6866 1 1 6.03384 0.943458 1.30166 3.14439
687 1 1 4.98296 16.4658 3.01471 1.47165
7300 1 1 6.1132 18.2103 2.60293 0.538867
1328 1 1 6.74361 17.9142 3.37151 0.322593
96 1 1 7.38746 18.3072 2.62087 0.171175
6079 1 1 8.94547 0.0684756 1.12686 1.85397
173 1 1 9.40816 17.7089 37.5857 0.804745
7950 1 1 9.79645 16.6821 0.502995 3.51362
696 1 1 10.4527 17.7185 4.31061 1.15729
1616 1 1 10.8277 18.4669 3.49159 3.57113
20 1 1 13.2501 15.9746 1.2951 1.92931
1588 1 1 13.5226 0.486199 1.25011 2.70746
6872 1 1 15.9942 16.9212 1.71601 1.21133
881 1 1 15.2806 15.372 3.11682 1.14815
1269 1 1 17.4397 18.1464 2.38998 2.14354
7497 1 1 16.0979 18.6919 0.527607 2.97843
7744 1 1 17.6727 0.0699822 1.81724 1.10011
1607 1 1 0.509718 17.9911 2.78156 0.205792
18 1 1 0.36075 18.4137 3.89432 0.923552
2026 1 1 2.14888 1.74472 2.74201 0.274904
547 1 1 3.82607 1.17862 2.99224 0.271638
1327 1 1 4.07092 18.6607 4.56307 4.0908
633 1 1 4.82429 1.8605 3.78222 0.414302
1738 1 1 4.24913 2.06063 4.66891 0.910162
2126 1 1 7.3911 0.762235 4.09129 0.903004
7982 1 1 8.11655 18.6543 3.48272 0.0426014
1168 1 1 9.81503 0.96432 3.45897 2.50098
497 1 1 7.78 0.472072 2.51015 0.717049
1579 1 1 10.9305 18.5667 4.63368 1.04491
7150 1 1 9.67891 1.40388 4.86627 0.408249
7821 1 1 11.7531 0.26875 2.75931 1.23313
7669 1 1 12.887 18.53 4.41478 0.416203
7980 1 1 14.3574 18.1248 4.76732 0.5676
2270 1 1 13.915 1.06112 4.36266 0.808076
430 1 1 15.0961 1.23209 4.65517 1.50082
1413 1 1 16.9998 1.60867 3.74416 0.523652
867 1 1 16.4287 1.47356 4.58548 1.67805
7028 1 1 16.0427 1.93931 3.59655 0.624993
853 1 1 17.1966 0.0759087 3.34077 1.77761
1443 1 1 18.7503 1.71314 3.03052 0.133423
879 1 1 0.872562 0.403464 3.33988 3.46666
2030 1 1 3.18434 2.15491 2.59458 1.02359
109 1 1 2.9285 1.70102 3.94703 1.19344
7251 1 1 2.60509 3.39831 3.92803 1.22018
915 1 1 3.64423 2.37504 3.87362 1.06648
1543 1 1 5.4499 3.24394 2.03245 0.542414
1322 1 1 5.12425 3.1615 3.38227 2.81468
7989 1 1 5.87003 2.03152 3.12112 0.800617
454 1 1 8.39437 2.23269 4.35619 2.16601
1466 1 1 9.1958 1.84285 3.52868 0.926416
824 1 1 10.3327 1.7472 3.7832 1.62737
1213 1 1 14.3357 2.41623 2.70283 1.87468
906 1 1 11.1348 0.962584 3.19773 2.23606
409 1 1 13.6903 3.21396 2.91443 3.63655
2075 1 1 12.7225 1.11191 4.49465 1.173
1473 1 1 13.735 0.174213 3.49328 4.53735
1044 1 1 13.6821 2.02289 5.15895 1.21052
1223 1 1 15.8097 2.99897 3.38229 0.119527
387 1 1 14.4218 1.97464 3.9615 1.92178
7601 1 1 16.9154 2.99265 3.62199 0.986572
206 1 1 0.977691 1.57385 2.43907 1.79051
148 1 1 0.811881 1.61738 4.20646 3.40215
874 1 1 17.7863 2.23694 3.34804 0.15518
7280 1 1 1.53819 3.46924 3.8752 1.39144
1374 1 1 18.7669 3.86862 3.56331 1.1008
6648 1 1 2.31292 4.89987 4.99081 1.91195
774 1 1 1.2541 4.15134 4.99226 1.17391
7123 1 1 4.41553 3.06202 2.05262 2.00215
2917 1 1 2.44086 2.56589 3.26787 1.61704
1365 1 1 2.80655 3.46493 2.88552 0.756395
7921 1 1 4.55978 4.59916 4.6183 1.35962
7685 1 1 5.68471 4.0768 3.33223 1.72175
1488 1 1 6.40183 2.604 4.56589 1.90041
2177 1 1 7.39111 2.24895 3.00414 6.10474
1208 1 1 7.56326 3.70639 4.29896 1.10808
544 1 1 10.2844 2.85676 3.5347 2.99235
623 1 1 11.3465 2.65644 3.64454 1.30603
7010 1 1 11.8957 2.74063 4.9603 0.184979
446 1 1 12.5918 3.86207 4.0473 2.66284
2139 1 1 14.4365 3.99128 2.51801 0.928621
2867 1 1 14.9052 2.154 5.12762 5.40309
1539 1 1 15.7601 2.73875 4.61886 1.35927
1422 1 1 17.56 3.67295 5.353 1.56271
7914 1 1 15.2305 2.99219 5.51518 0.950521
828 1 1 15.4598 4.05181 4.38569 0.34414
982 1 1 17.8528 3.26728 3.06652 0.409801
1041 1 1 17.1446 3.19841 2.07643 0.599528
47 1 1 18.5642 4.53124 4.3791 0.475486
1659 1 1 0.240101 4.65012 5.327 1.5426
15 1 1 1.26135 5.39306 4.88442 1.70847
548 1 1 2.31298 6.22525 6.9659 0.395349
7924 1 1 3.50637 4.36875 5.06735 0.429665
125 1 1 7.10103 5.28692 2.2112 3.28661
1723 1 1 5.41662 5.57382 2.03063 2.03523
98 1 1 7.41369 5.59041 3.89989 0.940357
2318 1 1 8.21229 6.29325 4.02174 0.00531528
796 1 1 10.2729 4.96174 3.62383 0.813031
6136 1 1 7.96654 3.12745 3.36457 0.641173
7666 1 1 11.1634 3.87163 3.88207 1.43724
183 1 1 9.70059 4.3602 2.958 1.27065
1203 1 1 14.2681 4.28692 3.65858 2.23269
2017 1 1 13.6766 6.96808 3.67626 4.59117
7273 1 1 15.685 4.40036 1.38529 0.749067
7998 1 1 15.5221 4.65763 3.44832 2.96899
75 1 1 17.8348 3.7382 4.11726 0.253083
6396 1 1 18.793 6.23053 3.62399 0.226617
1002 1 1 2.35249 5.50829 3.33421 1.14079
6848 1 1 1.94628 7.43474 2.89109 3.29661
1883 1 1 3.62806 5.89037 3.8965 0.512601
7879 1 1 5.79489 5.73967 3.04366 1.33428
1717 1 1 4.45582 7.12707 3.91194 0.109845
6767 1 1 5.75012 6.8968 3.28886 0.084223
1864 1 1 4.12783 7.55195 2.81483 3.11542
131 1 1 6.45716 7.55275 3.73237 1.06877
188 1 1 7.95995 5.91622 2.57556 0.701814
1217 1 1 7.43304 6.70547 4.70085 1.33489
7782 1 1 8.28384 6.77195 5.32896 0.368037
564 1 1 11.1248 6.55844 2.69502 2.64025
6538 1 1 11.015 7.06644 4.58408 0.371983
1927 1 1 11.2665 4.5914 3.19498 0.147844
1051 1 1 15.079 7.17727 3.60035 0.852393
7611 1 1 14.639 7.10699 4.75308 0.384362
285 1 1 14.7088 6.30774 4.00796 1.03707
5812 1 1 15.5892 3.70877 2.47838 0.612465
108 1 1 15.1911 6.21726 3.12648 0.728694
602 1 1 15.9094 6.21512 3.91824 1.7532
1338 1 1 16.7824 6.49861 3.7113 1.08677
928 1 1 18.7146 7.57471 3.66377 1.06608
1399 1 1 0.638629 6.69967 2.78509 1.01123
2747 1 1 1.04722 7.55381 3.51434 2.24883
996 1 1 2.49545 9.6352 4.54494 1.55316
357 1 1 3.08974 8.65439 4.21402 1.52909
626 1 1 4.45898 8.53227 4.40943 0.0165744
983 1 1 3.91323 8.53159 3.06649 1.26824
568 1 1 7.29357 7.31575 2.8765 1.63232
344 1 1 7.1185 8.39545 4.04233 0.794377
2980 1 1 8.34932 7.66015 3.21376 3.98776
7322 1 1 9.03201 6.61757 3.35112 0.166915
1784 1 1 9.53865 7.6509 4.24101 0.262515
648 1 1 12.156 8.09716 4.28035 2.77643
738 1 1 13.7326 8.78773 2.02868 1.17889
1802 1 1 12.7533 8.31325 3.15466 3.88164
1513 1 1 14.5522 8.86028 4.63185 1.86002
596 1 1 14.4743 9.4488 3.59282 0.432856
235 1 1 16.1766 6.89106 2.91662 3.77996
240 1 1 17.0331 8.30914 4.1645 0.497183
6875 1 1 0.220857 7.82111 2.74936 0.622845
2798 1 1 1.6637 9.57081 3.61326 0.247351
134 1 1 1.43058 9.2429 4.62416 1.08223
440 1 1 3.34117 10.2494 4.03487 0.394044
1417 1 1 5.27165 9.36837 5.33577 1.56714
1001 1 1 6.51894 9.57621 2.56683 1.50789
604 1 1 6.41446 8.58617 3.23503 1.62549
1211 1 1 7.33943 9.56614 3.31198 3.03409
95 1 1 8.32189 9.7325 3.04092 0.86424
345 1 1 9.63477 8.34537 3.52661 1.31149
1460 1 1 12.5286 9.05033 2.0461 0.716929
7867 1 1 12.7818 9.46396 3.15677 3.09781
241 1 1 12.213 9.78826 4.06656 1.92425
1250 1 1 14.6288 9.52542 2.22023 0.428816
2587 1 1 13.585 8.95711 3.83171 2.27699
790 1 1 15.2638 9.80208 3.0799 0.352849
7470 1 1 13.853 9.83201 4.53856 1.61415
6561 1 1 16.3174 9.49513 3.36829 0.223743
7432 1 1 0.555184 8.96715 2.3569 0.996536
1113 1 1 17.4191 8.89023 5.43265 0.316508
863 1 1 0.684424 10.4502 5.30292 5.26459
7721 1 1 3.94627 9.3511 3.60064 0.353466
1093 1 1 1.64726 12.5659 3.2058 3.02987
7474 1 1 1.5038 12.7617 4.8452 3.13272
399 1 1 2.83893 10.9975 3.1123 1.34385
2882 1 1 4.94449 9.71005 3.29241 1.65897
970 1 1 3.45471 11.9764 4.78671 1.27608
7862 1 1 3.65871 11.6283 3.50733 0.300476
2265 1 1 6.57174 9.41553 4.08131 2.19641
1727 1 1 7.92003 12.2386 2.69863 0.118622
478 1 1 6.90634 11.643 2.97297 2.89274
825 1 1 9.80512 10.49 3.89028 0.786617
1296 1 1 9.36484 9.7914 3.25657 0.484419
7573 1 1 10.256 9.01888 2.43762 4.00106
378 1 1 12.2722 12.5681 2.47218 5.22292
1332 1 1 11.8873 9.16516 2.93546 0.790776
1438 1 1 13.3047 10.656 4.29118 0.460641
7979 1 1 13.3685 10.9638 5.49892 1.47561
1189 1 1 13.8506 11.5898 4.66322 1.42724
1072 1 1 14.3268 10.4419 3.21186 1.14784
1143 1 1 15.7195 10.3394 1.95812 1.95885
1728 1 1 18.2802 9.73944 3.63523 0.82648
622 1 1 0.510033 9.61999 3.22142 1.4773
1280 1 1 18.5305 12.636 4.22854 0.497614
1895 1 1 3.81342 14.9435 3.05265 2.51221
7863 1 1 0.652534 13.6669 6.10565 0.322108
800 1 1 3.77206 14.3211 3.89878 1.19263
7011 1 1 1.91337 13.7122 3.84852 4.69006
1178 1 1 5.89294 11.8273 4.24642 1.35791
1163 1 1 3.04183 13.5809 3.94438 3.20248
1448 1 1 6.0945 12.9925 3.80977 3.60702
699 1 1 7.22816 12.9439 3.72322 0.0563289
163 1 1 9.57339 13.9477 2.37449 0.841143
1226 1 1 9.22949 11.7454 3.06491 4.32156
823 1 1 9.93837 13.008 1.90488 2.30283
1504 1 1 9.69622 12.1908 5.53637 2.22051
7138 1 1 13.7633 11.4045 3.38227 0.889097
1799 1 1 13.0034 12.6357 3.94322 0.445557
991 1 1 15.2241 11.826 2.84379 1.20118
303 1 1 15.5096 11.9004 4.81572 2.24434
302 1 1 14.0859 13.5463 4.52441 1.4444
6563 1 1 16.5797 11.3989 2.87194 0.304421
1079 1 1 0.221798 12.8273 2.6635 0.530663
918 1 1 0.0856421 13.3246 4.95035 2.09288
7754 1 1 0.111253 15.02 5.41268 1.72474
642 1 1 0.140232 14.5902 4.47803 1.03749
7051 1 1 3.00051 14.2656 2.98591 1.08159
7515 1 1 1.01305 13.7799 4.99768 1.13768
6531 1 1 4.20096 15.1698 4.51881 1.67205
6536 1 1 5.38046 13.4121 4.78712 6.72234
7210 1 1 3.82398 12.4879 3.94566 2.8615
7139 1 1 7.45998 13.4165 4.7423 1.18034
221 1 1 8.04876 15.0337 4.11037 0.923502
1848 1 1 10.6277 13.4014 3.18618 1.03333
284 1 1 10.4144 16.3061 4.24571 1.74964
64 1 1 10.2233 12.4309 3.37957 0.687093
1100 1 1 11.28 12.7362 5.23231 1.10913
7705 1 1 12.6231 12.4671 1.42257 0.638587