ITEM: TIMESTEP
2700
ITEM: NUMBER OF ATOMS
8000
ITEM: BOX BOUNDS pp pp pp
0.0000000000000000e+00 1.8820720577620570e+01
0.0000000000000000e+00 1.8820720577620570e+01
0.0000000000000000e+00 3.7641441155241139e+01
ITEM: ATOMS id mass type x y z v_temp
351 1 1 0.369447 1.34994 2.3772 0.623772
1198 1 1 4.18909 0.439328 37.4362 0.214106
1116 1 1 3.70343 0.989566 0.896287 4.23379
6280 1 1 2.19697 1.14661 0.729671 0.668217
6076 1 1 3.80979 1.10855 35.4997 4.44148
7613 1 1 5.27663 18.5748 2.02867 0.529522
775 1 1 8.52841 2.83664 0.919371 1.55448
6363 1 1 5.62314 1.82531 1.40901 1.53459
175 1 1 7.14976 17.2968 0.361313 1.57924
934 1 1 8.76832 2.13886 37.4957 0.310113
1416 1 1 8.27795 18.1674 1.51907 1.40825
6582 1 1 12.3383 17.5838 3.26709 1.57263
1139 1 1 12.1317 1.24906 36.6739 1.23508
7873 1 1 10.1724 17.7102 37.521 0.103938
352 1 1 15.7326 0.602328 36.4416 0.328797
1377 1 1 14.9093 2.77999 2.16264 0.467899
7568 1 1 13.0757 18.5819 37.6119 1.02097
1186 1 1 16.3414 16.5265 2.70827 1.17385
1265 1 1 14.9226 2.03515 37.491 0.952755
126 1 1 15.768 0.273955 2.22635 0.330456
791 1 1 18.1755 2.64074 37.4837 0.686126
1999 1 1 17.8445 16.4451 0.855333 0.654154
383 1 1 0.821738 2.19252 2.56367 2.51985
7930 1 1 1.12865 1.45069 1.2233 0.327063
6845 1 1 16.7581 1.9387 0.810954 4.3057
31 1 1 0.312616 2.80214 3.21055 1.76113
1739 1 1 2.85486 0.65519 0.0436799 0.528899
7604 1 1 2.97381 1.80365 0.421475 0.0964876
155 1 1 5.46225 1.04905 36.9504 0.545815
7785 1 1 5.17027 2.19021 2.68342 0.797823
1446 1 1 7.56389 1.51405 37.5594 0.144853
217 1 1 8.63424 3.78584 0.0793467 0.44628
418 1 1 8.46231 3.13208 1.98594 0.220112
726 1 1 11.234 3.16524 2.38671 1.0193
2348 1 1 11.9968 2.56226 2.94127 2.50282
1333 1 1 12.1386 2.96629 0.398027 1.374
515 1 1 12.4455 1.59475 1.39397 0.413802
7745 1 1 12.6026 0.618257 0.331948 0.713134
1270 1 1 12.4392 1.63865 2.44555 1.87554
6850 1 1 14.1963 2.34157 0.621713 3.5946
1037 1 1 16.3496 3.02205 1.64114 0.544566
1315 1 1 17.2984 18.4874 36.2182 0.0888222
6006 1 1 0.895487 3.35368 1.64814 1.23194
508 1 1 18.2865 2.88241 1.2372 0.238859
1045 1 1 18.8276 5.17105 1.48271 1.51024
875 1 1 1.54245 4.97497 36.4958 0.887394
7718 1 1 2.15855 4.90818 0.596864 2.87968
6152 1 1 5.08549 4.9622 1.67055 1.51773
1348 1 1 5.47731 3.16751 2.75072 2.50103
6026 1 1 4.39782 5.67319 2.46773 0.882618
1850 1 1 7.06156 3.38142 0.801772 1.17204
1381 1 1 9.09022 6.36266 0.609019 2.15544
7861 1 1 7.2726 3.58634 2.11501 3.59849
7032 1 1 11.8935 3.32336 1.72809 1.51932
1661 1 1 9.98783 2.45394 3.79333 2.56229
7588 1 1 11.4331 5.13798 36.0626 1.1266
6060 1 1 11.3808 4.13879 2.94485 0.664948
1806 1 1 14.7552 4.08537 0.805052 2.73022
7155 1 1 12.7625 4.29164 1.59637 1.92718
437 1 1 11.648 3.88657 37.4603 2.07616
7301 1 1 14.0867 1.40166 0.167527 0.310739
2221 1 1 16.883 2.97093 35.6786 1.16793
7468 1 1 13.5142 2.50793 2.04936 2.46868
5355 1 1 15.9934 3.80348 0.713906 0.831664
223 1 1 17.3964 5.46316 0.727936 1.10598
2033 1 1 1.79795 3.14412 3.79099 1.68063
1401 1 1 1.51917 5.41072 35.1114 0.684594
7697 1 1 3.22753 4.31676 0.0768497 3.52731
936 1 1 2.65101 5.29451 1.52474 1.28202
7904 1 1 4.59101 3.72744 37.108 3.09189
582 1 1 7.25475 5.36059 36.3571 1.19264
6922 1 1 7.79944 3.90604 1.09467 3.43551
7748 1 1 7.52993 4.47466 35.4954 3.40397
7387 1 1 7.64199 4.99016 1.22139 1.41787
6703 1 1 9.76385 2.25426 0.380078 3.0846
6551 1 1 11.9206 4.71833 0.797971 3.3749
7408 1 1 10.6478 5.34527 36.9842 0.395302
6044 1 1 13.1505 5.78397 0.352162 0.288424
271 1 1 13.7595 6.35584 3.05941 0.669421
7320 1 1 13.5034 3.04386 34.425 0.753831
7115 1 1 12.9873 4.78469 0.406996 2.71
1329 1 1 15.0304 5.43063 37.0874 0.55279
103 1 1 15.6661 5.62528 0.483188 1.38919
7091 1 1 16.0834 6.12081 37.1907 0.67158
7717 1 1 18.3736 9.64198 1.12517 1.10651
6161 1 1 1.58705 6.44662 36.4506 1.66028
137 1 1 18.6551 6.49461 1.97001 1.17716
7507 1 1 1.50785 5.83976 37.3125 0.555554
1409 1 1 0.457949 6.16809 1.21332 1.41498
7942 1 1 1.06784 8.42691 0.563892 1.50283
6971 1 1 3.85642 7.82637 1.44967 0.759538
72 1 1 1.34448 7.58562 1.11104 1.16037
190 1 1 3.72034 7.10232 0.55675 2.38567
6605 1 1 3.54618 7.06005 2.40059 4.8988
7215 1 1 4.58834 5.0607 3.82899 1.57257
294 1 1 7.35178 7.26002 0.166525 2.84264
7944 1 1 2.45429 6.89264 2.94812 0.250177
5747 1 1 6.48271 4.43232 2.78428 0.262765
429 1 1 8.11782 8.10615 37.627 1.80525
7094 1 1 9.76516 6.62737 2.62806 2.22897
21 1 1 8.44921 6.83949 37.2798 1.91673
61 1 1 10.9382 4.98658 0.879062 0.30791
6619 1 1 13.4603 8.04117 1.16813 2.07306
550 1 1 11.9554 5.56137 3.30438 0.951805
533 1 1 9.68818 5.50202 2.28829 2.51927
1664 1 1 13.8733 7.11928 0.346836 0.941099
486 1 1 14.7937 6.86341 3.0891 0.455777
591 1 1 13.9104 6.82229 4.17832 2.66079
164 1 1 13.2698 3.67601 0.971502 1.91178
762 1 1 17.2944 9.06949 36.8567 0.974211
6476 1 1 15.0672 6.58229 37.3413 1.02212
5857 1 1 16.9626 7.93876 0.814019 0.406109
354 1 1 6.88454 6.2945 37.3917 2.95335
6987 1 1 2.61621 5.85025 0.541555 0.307355
6874 1 1 5.79662 7.26026 1.6574 1.15242
1415 1 1 4.72788 7.48244 0.905052 3.11975
615 1 1 7.0312 9.63759 3.20678 0.528526
7740 1 1 7.98373 9.51965 36.7205 0.499225
7958 1 1 12.0773 6.55301 35.7606 0.164382
973 1 1 11.7339 7.61091 2.8412 1.77738
6463 1 1 9.35058 7.51101 37.4903 1.67769
91 1 1 14.6062 7.74571 0.00995945 2.78311
1193 1 1 12.9588 7.11813 1.30875 2.30537
276 1 1 15.6491 7.65583 0.230094 0.213223
5649 1 1 0.543973 9.51009 0.622817 1.02492
371 1 1 16.5891 6.60235 0.368048 0.812062
1360 1 1 1.34438 7.34213 0.0170458 0.887129
6196 1 1 1.64183 8.03208 2.75906 0.47552
6762 1 1 0.0940096 12.8987 3.14537 2.25528
6126 1 1 5.4297 10.8826 36.1837 2.12954
834 1 1 3.88143 10.4945 2.28277 1.64383
7326 1 1 5.21773 8.45655 1.67283 1.50666
1681 1 1 4.5301 8.76154 0.955732 0.478991
6584 1 1 7.36823 10.0745 0.940967 2.22906
7065 1 1 6.36935 9.52302 1.18217 0.379158
7943 1 1 10.168 9.9725 0.863429 0.560387
1781 1 1 6.70706 6.85912 2.49297 4.88811
6497 1 1 9.68926 8.18124 1.41146 0.293472
7866 1 1 10.9661 9.58928 37.6331 1.498
6699 1 1 12.4338 9.03929 36.5684 0.307567
574 1 1 11.9551 11.0784 2.13847 1.00577
7266 1 1 13.1064 10.1294 1.70209 5.48314
7983 1 1 14.1959 8.08506 1.92977 2.36823
7021 1 1 15.5298 9.00174 0.657113 0.226983
6599 1 1 18.6873 10.5719 35.4925 0.102533
6159 1 1 17.0071 7.91231 2.48168 1.74198
86 1 1 1.44 9.60629 37.1957 1.93573
7621 1 1 4.2788 13.3734 2.09367 4.55895
7967 1 1 1.31939 10.4002 0.340373 0.620488
7047 1 1 3.0239 9.72827 1.15298 0.961052
6656 1 1 3.57938 11.7271 35.0475 0.0486564
955 1 1 8.19559 10.1542 2.05999 0.664027
6842 1 1 6.83013 12.5753 1.43558 0.886109
7002 1 1 8.49731 9.84164 37.6347 0.816512
1790 1 1 8.39431 10.7553 1.03658 1.89574
6380 1 1 5.40663 8.92539 34.9364 1.52731
6933 1 1 7.65857 8.01475 1.15406 2.69118
721 1 1 10.298 8.56379 37.491 1.16265
6752 1 1 12.4355 12.1677 36.4343 2.22001
6527 1 1 12.6227 13.8154 0.0853846 0.839709
38 1 1 14.1678 11.0449 3.43671 1.82688
678 1 1 9.52057 9.30264 37.499 0.126474
423 1 1 12.9082 10.9634 0.337962 2.11157
1074 1 1 14.2094 9.8489 0.512992 0.377416
1068 1 1 16.5746 12.2753 35.3915 1.31245
969 1 1 15.022 10.7264 1.19786 0.294531
1349 1 1 18.1089 10.0957 36.9072 1.98711
634 1 1 17.9946 12.0842 0.203426 1.20459
7772 1 1 17.7674 11.7971 1.38488 1.03629
7836 1 1 0.970212 13.7916 34.3407 1.34112
7855 1 1 1.90793 12.7406 37.4977 1.75497
549 1 1 2.52187 12.3606 0.650638 0.952847
773 1 1 2.4531 12.2616 2.01616 0.780183
7056 1 1 3.24168 12.3386 2.5728 1.51249
8000 1 1 4.75582 11.3732 2.36893 1.80216
7854 1 1 3.27806 8.57112 0.942637 2.96297
1432 1 1 8.14722 13.7796 2.71547 0.518824
829 1 1 5.93033 12.6136 37.2687 0.483456
10 1 1 8.5419 11.2881 37.2926 0.150817
6399 1 1 9.10965 15.7373 0.901817 0.85354
6939 1 1 10.8216 12.978 35.9282 1.17373
1103 1 1 11.5308 15.7284 0.833509 0.756002
236 1 1 8.60863 14.0283 37.0159 1.79486
7548 1 1 16.0868 10.4399 37.0978 0.157942
2320 1 1 12.1064 12.4798 1.60375 1.5229
6590 1 1 14.6794 14.061 3.40206 1.8138
7993 1 1 14.8133 13.1336 35.683 3.91763
2353 1 1 15.984 11.272 1.26035 1.77866
7670 1 1 0.219522 13.5247 1.80762 0.261908
1676 1 1 16.5383 11.9131 3.20907 0.59841
1567 1 1 17.2295 12.7938 37.2743 0.462098
7947 1 1 1.73109 15.7056 1.95757 3.86815
962 1 1 18.1366 14.5039 1.64499 0.404727
4804 1 1 2.30965 13.5222 2.80057 6.14638
7957 1 1 3.15619 15.9165 3.67731 0.543717
1350 1 1 3.49385 12.7546 36.695 0.425899
7217 1 1 4.15937 15.6665 0.826872 3.08397
6232 1 1 3.57162 11.6605 1.66714 0.308601
287 1 1 4.87043 13.1366 36.603 1.08231
7248 1 1 4.34236 16.1134 37.5581 2.1243
239 1 1 7.7304 15.9601 1.22172 0.789314
1144 1 1 9.63861 15.1653 37.5595 0.102421
1295 1 1 9.01486 14.275 2.38271 2.12563
976 1 1 13.5418 11.7564 3.7579 1.29838
7680 1 1 12.3579 14.8512 0.419067 2.6217
297 1 1 15.6163 13.9577 36.6685 2.20671
7052 1 1 14.4876 15.0729 2.85209 0.142786
7853 1 1 18.36 13.4411 37.288 1.39383
2409 1 1 17.4085 14.298 0.696693 0.633865
7338 1 1 15.384 12.9057 1.84504 0.843487
1529 1 1 16.7235 15.7037 0.721834 1.5294
7926 1 1 1.57934 15.625 35.8381 0.42658
686 1 1 2.57033 18.0636 3.08927 0.500814
7101 1 1 2.45023 17.1199 37.4297 1.20698
7454 1 1 2.67653 16.036 35.6702 1.93155
558 1 1 4.32595 15.4785 4.35425 5.20823
1481 1 1 4.49814 16.8655 36.6752 0.976479
844 1 1 5.25532 14.0758 2.78067 0.490435
1210 1 1 6.2954 14.0023 0.820019 1.60467
7891 1 1 10.4352 15.7264 0.336263 1.18094
7180 1 1 11.8389 13.9268 3.5531 1.67227
7543 1 1 13.4633 14.3726 36.978 1.21264
389 1 1 14.0151 15.7882 0.857707 2.17778
432 1 1 13.7179 14.7293 3.40206 2.83581
653 1 1 15.0839 17.8774 1.72229 0.183635
393 1 1 17.2695 13.6317 36.4117 2.2755
7390 1 1 16.4331 16.5542 34.75 0.199047
1406 1 1 17.8406 15.6062 1.41764 0.523503
579 1 1 16.0389 16.4371 0.0331644 1.22252
7451 1 1 1.37481 18.4777 2.17369 0.624631
1569 1 1 1.38491 0.0068063 35.0755 1.39145
757 1 1 0.894635 15.7479 1.05385 1.15619
7569 1 1 5.32836 13.6081 35.7491 2.56324
1729 1 1 4.962 15.7957 2.7567 0.684315
605 1 1 7.07125 16.968 1.54331 0.136274
1995 1 1 6.02289 16.1366 37.2333 4.5974
7303 1 1 6.82612 15.8753 0.584535 2.13329
1582 1 1 5.30852 17.5491 35.5758 0.986414
13 1 1 7.33853 0.271551 0.13157 0.14819
1206 1 1 9.27435 18.6055 36.1307 1.50741
6851 1 1 8.49202 16.686 0.648878 0.360927
7452 1 1 11.6213 16.893 2.4761 0.226324
7149 1 1 11.1683 0.786077 0.509758 0.324349
433 1 1 11.1663 14.7258 2.4784 2.39033
7341 1 1 14.424 16.0639 35.5936 0.0479635
1110 1 1 16.9298 17.3263 3.24352 1.74477
356 1 1 15.9132 15.5701 36.8495 0.841623
629 1 1 15.0032 14.4505 0.932364 1.79927
1042 1 1 17.2424 16.3025 2.28526 0.2987
5999 1 1 18.2481 17.2385 35.3113 1.21374
7892 1 1 1.13798 16.5679 35.9104 1.90325
129 1 1 3.46098 0.253039 36.0087 5.48635
6688 1 1 3.69337 17.437 2.19557 4.13176
692 1 1 4.05424 18.7967 0.996082 0.145096
6713 1 1 2.68158 18.2182 37.254 0.96815
7404 1 1 2.41164 14.8788 1.84237 0.0818213
835 1 1 3.69129 16.0436 34.9288 1.77694
6835 1 1 5.22479 15.355 37.3346 1.37226
566 1 1 6.97126 0.363183 1.08715 1.16398
6914 1 1 7.96718 17.48 37.3497 0.550891
5985 1 1 11.2392 16.142 37.4515 0.278505
472 1 1 13.2701 17.1008 1.63914 0.841894
7672 1 1 14.8094 15.2959 37.0854 5.44225
2287 1 1 18.2095 1.17792 36.498 1.12447
6092 1 1 12.7797 16.3601 0.598729 0.400326
7106 1 1 0.0071551 16.9736 34.3621 1.51994
7202 1 1 17.4247 1.22748 1.10928 0.288115
2662 1 1 18.2092 17.4253 0.23801 1.4319
7261 1 1 0.520911 14.4407 37.5251 0.223021
194 1 1 18.5522 1.82069 2.9286 0.934956
954 1 1 0.884814 17.0112 2.18621 0.250858
643 1 1 1.93526 3.30595 1.66491 0.930314
7818 1 1 5.97832 1.00317 2.47186 1.93407
3146 1 1 4.5593 1.16239 0.456177 1.92841
1279 1 1 2.81109 1.10123 1.57789 1.52927
7166 1 1 5.9895 0.328857 0.529643 0.648237
1140 1 1 7.59465 2.00296 1.04141 0.325095
895 1 1 8.81807 1.19921 0.356357 0.583179
700 1 1 11.4705 0.22153 3.10583 2.91334
6986 1 1 9.24372 17.4837 0.699741 0.828137
1708 1 1 10.0978 15.417 3.77727 1.09077
505 1 1 13.2928 1.85403 0.942412 3.05848
2106 1 1 12.4773 17.8109 1.04636 1.09368
640 1 1 11.604 15.8851 3.81248 1.20595
7440 1 1 15.6088 1.93195 1.50529 0.095092
1928 1 1 17.7436 17.942 1.28973 0.914179
1672 1 1 18.7381 1.0201 1.30761 0.677772
7992 1 1 1.00997 5.29851 2.93112 2.64752
7938 1 1 1.32213 4.97062 1.87365 0.352734
656 1 1 4.74099 2.68164 3.7767 0.140421
489 1 1 3.09497 3.02814 1.88599 0.301382
1309 1 1 6.5756 1.9257 2.72392 0.747302
6942 1 1 7.94523 0.365972 36.2539 3.36196
7535 1 1 8.10207 1.47997 2.5756 2.05296
7332 1 1 10.9954 2.51823 37.1573 5.33496
6477 1 1 8.73727 1.80515 3.20586 1.59646
94 1 1 10.6936 0.444057 2.35985 2.3267
6659 1 1 10.5287 1.42116 1.59625 2.14483
82 1 1 8.28067 4.16288 2.58201 0.652638
1993 1 1 10.5699 17.8506 1.87793 0.681863
511 1 1 12.6954 17.6825 2.29394 1.86005
1339 1 1 11.4777 1.2387 2.04396 0.0728264
122 1 1 10.8513 18.4238 0.615915 3.74504
3071 1 1 14.4078 3.25748 3.16868 1.29533
1183 1 1 14.2888 1.95152 1.91227 1.6548
1591 1 1 17.0647 1.9957 2.12326 1.26263
149 1 1 18.1706 1.74393 1.81181 3.15882
1020 1 1 15.9892 2.3521 0.0444144 2.45423
7088 1 1 17.5065 0.36425 1.62396 2.78239
7841 1 1 1.74924 4.54797 3.29802 1.03896
366 1 1 2.41765 4.50828 2.48967 3.87045
406 1 1 3.19559 4.02256 1.46497 0.985088
509 1 1 1.14507 4.26574 4.36225 1.6413
2824 1 1 2.31215 3.72139 0.664674 2.4533
3 1 1 5.52521 5.09144 2.79063 0.336254
1237 1 1 4.62101 4.30094 3.13492 1.15456
7503 1 1 5.44712 3.89487 0.403723 2.75276
7663 1 1 7.21772 4.66381 5.16086 4.48654
7653 1 1 9.18034 3.68503 1.19456 1.1144
661 1 1 6.50596 3.25667 2.90727 0.0524169
56 1 1 6.60918 1.24805 1.36046 3.59062
570 1 1 7.66598 5.99457 4.39334 1.2868
3337 1 1 12.9731 2.74074 1.16621 0.545379
1648 1 1 12.4013 4.15807 2.5727 3.01003
980 1 1 11.7769 0.0038407 2.19308 0.836213
1239 1 1 13.5943 5.05708 2.59398 1.90083
6241 1 1 15.4569 2.93883 1.11611 0.924319
651 1 1 16.6241 4.31396 2.91764 2.46967
115 1 1 0.045689 3.52431 2.59881 1.30416
7937 1 1 1.56038 2.0219 4.12439 1.26818
314 1 1 0.182505 4.89891 3.39744 1.46091
7284 1 1 0.418521 4.42989 2.14487 6.45403
7631 1 1 4.7984 4.06698 6.08312 2.62076
68 1 1 0.768751 5.17863 0.62991 0.769941
7660 1 1 3.1341 3.61035 2.96143 4.59962
1714 1 1 4.92893 6.4149 0.245817 1.26944
7643 1 1 8.00736 6.84352 0.73526 0.98742
7644 1 1 11.2435 4.37147 1.8071 0.802507
553 1 1 11.0534 5.98736 3.28331 1.05876
7348 1 1 10.7241 5.44029 1.95525 1.14026
588 1 1 12.4375 5.30174 4.67154 2.1579
1826 1 1 13.5816 4.2231 3.87477 2.65961
1833 1 1 12.6203 7.73931 3.19239 9.15928
469 1 1 14.4347 5.6785 0.462974 0.966144
7358 1 1 17.0135 4.78268 1.57905 2.03869
802 1 1 18.4242 6.10292 3.1191 0.242245
7659 1 1 16.6611 5.96618 1.27825 0.694064
3092 1 1 16.6318 5.68689 2.34925 2.07188
1287 1 1 17.0202 8.92718 5.51596 0.762277
5817 1 1 4.0196 6.93133 3.34346 2.67904
7242 1 1 2.20745 7.64636 3.69109 2.87447
7803 1 1 2.05334 6.30669 2.02018 0.590926
7738 1 1 6.02523 5.55092 1.52972 2.93224
1596 1 1 1.64392 8.72246 1.78497 0.63084
1427 1 1 1.59784 5.91993 1.17877 0.458221
214 1 1 8.30296 5.1092 1.97061 0.0422183
1076 1 1 10.4163 6.20597 37.525 3.92023
1369 1 1 8.43661 3.7289 4.48251 3.12766
117 1 1 7.57189 7.46073 2.96488 0.499138
7625 1 1 9.85609 4.29459 1.83658 1.98846
7972 1 1 14.6739 4.93599 4.86499 1.98026
140 1 1 12.9639 6.40196 2.23289 2.14849
7719 1 1 12.5148 5.78558 1.35566 0.32782
7185 1 1 14.6707 4.87043 3.24161 1.35542
1537 1 1 13.9534 6.27635 1.90943 1.59902
7544 1 1 14.2654 5.17546 2.02841 1.47371
6995 1 1 1.02159 10.5015 5.4676 0.777603
6975 1 1 4.72365 9.81995 3.04814 0.628957
1562 1 1 2.21435 8.31901 0.735992 1.17591
926 1 1 0.61609 8.62082 2.50744 0.295751
7472 1 1 5.44681 9.03362 2.92554 0.74972
925 1 1 4.21812 8.24852 2.7868 0.490105
529 1 1 5.86755 7.80833 0.672539 1.70981
1547 1 1 4.74522 11.0396 1.00502 1.58181
1224 1 1 7.1453 6.05883 0.772252 0.307435
1194 1 1 7.84341 8.65901 3.08907 1.49195
1107 1 1 10.1732 7.3421 3.30019 0.501332
6566 1 1 8.45516 6.29683 1.76537 1.17629
519 1 1 13.9795 5.8212 5.74623 1.13643
2244 1 1 11.2097 6.28624 2.10947 0.359087
277 1 1 10.7754 7.92253 1.40049 3.20746
5690 1 1 11.4937 7.05648 1.36299 0.826305
543 1 1 13.6018 7.30229 2.56414 0.449419
102 1 1 16.7009 7.42003 3.23525 0.991158
913 1 1 15.2596 7.37287 1.169 1.86604
669 1 1 16.5782 8.53497 1.58023 1.218
6675 1 1 17.5882 8.88733 2.38756 2.57798
107 1 1 0.733713 8.6556 3.58988 1.72892
1036 1 1 1.57272 11.5948 0.136503 0.5946
178 1 1 2.75672 11.3384 4.31033 0.547517
1863 1 1 5.70142 9.95886 2.03042 2.94668
369 1 1 1.91746 9.57278 1.49624 1.05405
2311 1 1 6.21754 8.61125 3.97713 0.910694
1046 1 1 6.74 11.1582 2.10006 1.0434
238 1 1 9.25126 10.2323 0.605715 1.231
985 1 1 8.12162 6.44042 3.22816 3.67764
7538 1 1 8.66327 10.1437 5.58739 6.12292
341 1 1 12.404 8.32623 4.5517 0.775101
7156 1 1 11.0264 9.16774 2.75311 2.08189
610 1 1 11.2863 9.36708 1.04037 0.897975
1487 1 1 10.7029 10.3325 3.40189 0.469459
7945 1 1 14.5772 8.43293 0.766337 1.21231
1906 1 1 15.0667 8.60276 1.77684 0.669162
79 1 1 16.333 8.71745 2.53883 1.84136
247 1 1 2.11074 9.65102 2.71777 0.332338
7851 1 1 1.72471 12.54 1.28974 2.75561
230 1 1 1.15418 10.0191 2.84389 0.79302
300 1 1 0.509265 11.32 4.49345 0.563248
7966 1 1 1.06732 10.1654 1.29428 3.25564
445 1 1 2.72569 12.328 4.70062 0.790495
765 1 1 4.56252 9.78851 2.01366 2.53848
340 1 1 4.41256 10.0446 0.826966 1.93048
1264 1 1 4.91964 11.0425 4.31853 1.42696
481 1 1 5.20088 11.6891 3.42136 2.63123
1389 1 1 4.9081 11.7839 5.0346 0.00364514
7335 1 1 8.5835 7.82503 1.45519 1.18036
4198 1 1 9.64587 9.74942 4.54282 2.88282
1069 1 1 12.0483 8.83491 2.20392 0.306061
2814 1 1 9.51893 10.3626 3.0959 0.577236
1385 1 1 9.70619 11.2196 1.4062 0.854149
6693 1 1 11.6955 10.7659 3.43014 1.20202
386 1 1 10.8628 11.0403 2.20423 1.39478
7913 1 1 15.595 10.0001 1.61598 0.081632
374 1 1 13.0311 9.41595 2.61571 1.26368
818 1 1 14.3839 11.0797 2.06272 0.418998
1234 1 1 17.5713 12.4897 5.52472 0.886217
7800 1 1 17.6906 10.6011 0.606151 2.64664
336 1 1 17.8332 13.2446 0.570293 1.01215
7089 1 1 17.768 11.8444 3.73269 0.877342
259 1 1 1.36211 11.2539 3.16903 1.03317
245 1 1 1.26153 13.1613 3.48136 1.06498
7811 1 1 4.16275 12.0535 4.03221 1.50026
584 1 1 4.96269 12.7446 4.31679 0.631484
704 1 1 4.28603 12.2938 2.37083 3.72231
769 1 1 7.71537 13.51 1.00627 1.23573
6646 1 1 2.96418 13.4752 4.30867 5.19865
815 1 1 4.88111 15.2372 1.60908 3.16262
1542 1 1 8.03681 11.7133 1.40621 1.90001
7704 1 1 10.2238 12.9004 3.31809 0.279783
1475 1 1 8.19743 11.9114 4.58347 4.61763
7459 1 1 6.88904 11.9934 3.47503 1.13486
563 1 1 8.53624 11.4901 2.42214 0.376752
734 1 1 9.54642 13.337 4.75854 1.027
6723 1 1 11.0429 12.0744 1.5196 1.25912
7004 1 1 11.6793 10.1238 1.7769 1.07475
7834 1 1 11.7825 12.9928 2.73842 0.0583669
2150 1 1 11.8666 11.4124 36.8949 1.57404
627 1 1 16.0792 11.9928 2.06166 1.80181
1514 1 1 15.564 13.1511 0.209589 0.726051
712 1 1 14.337 13.8314 6.95222 0.369774
234 1 1 18.71 15.4696 2.32342 3.16872
1082 1 1 0.999851 11.302 2.10561 2.00104
1971 1 1 2.05852 12.322 3.55235 0.74617
6459 1 1 3.84333 12.6674 3.32243 0.578601
7060 1 1 3.89097 13.4125 0.937404 1.87377
6600 1 1 6.49628 13.0359 2.76669 0.29761
487 1 1 7.20642 13.7122 2.08323 1.14037
365 1 1 8.44232 14.3633 3.67519 2.39179
53 1 1 7.3704 14.1769 3.743 3.85305
1165 1 1 10.748 12.7045 0.598643 2.81669
7984 1 1 10.4051 13.643 37.3177 0.733945
286 1 1 11.5036 13.0118 37.3337 1.75455
416 1 1 9.88712 13.2994 1.6889 1.41164
6750 1 1 14.44 12.5909 3.89432 1.50049
1187 1 1 13.2797 11.3774 2.29082 2.61471
1904 1 1 13.5906 13.2504 3.33772 1.51505
7444 1 1 15.2317 14.494 2.09144 1.02826
375 1 1 15.6738 14.6789 0.0674317 2.68169
1282 1 1 1.95567 15.5069 0.928519 1.24755
1561 1 1 3.80556 16.571 1.47113 1.91928
785 1 1 4.10735 15.4266 2.25711 1.39572
504 1 1 6.03281 16.9986 1.27295 0.472331
1527 1 1 5.51722 17.0392 0.252634 0.299967
2046 1 1 7.68324 16.2055 4.4352 0.725689
7489 1 1 6.04162 13.9255 2.01238 1.06905
885 1 1 6.42198 14.265 3.0563 0.301249
902 1 1 6.58861 16.8379 5.07576 3.06599
1940 1 1 6.96192 15.278 3.99359 2.08752
2224 1 1 11.5707 17.8996 1.39262 1.20444
961 1 1 7.00465 14.7254 1.10237 0.77879
7893 1 1 11.1024 14.8961 3.74767 1.32586
7757 1 1 15.6257 15.9448 0.672247 1.40578
93 1 1 16.4389 13.9638 3.87883 0.874638
1077 1 1 16.101 13.6414 2.5904 0.53796
1614 1 1 18.1527 15.9543 3.76264 0.957586
7951 1 1 0.545433 18.1524 0.614437 5.35135
7116 1 1 18.2351 17.4399 2.26097 0.702115
439 1 1 2.96375 13.3075 0.127148 5.71059
1634 1 1 2.72792 16.88 2.14243 0.125108
7934 1 1 4.02098 17.6359 3.56365 1.37446
763 1 1 5.93005 17.216 2.61394 0.385611
7620 1 1 10.6769 15.1997 1.42987 0.683505
1196 1 1 9.18011 18.72 0.713559 0.105162
338 1 1 10.4613 16.6531 3.63959 0.362006
1167 1 1 12.4054 14.8915 3.12444 0.205094
7163 1 1 13.7641 15.6699 2.01758 0.0509675
820 1 1 13.3293 14.6734 1.82598 0.58276
1308 1 1 13.865 17.353 0.484356 0.0142178
1479 1 1 13.9594 16.8931 2.54969 1.55161
1638 1 1 0.861358 16.2607 37.099 0.663521
328 1 1 1.41305 0.566126 37.1665 1.18633
859 1 1 0.3706 1.40708 36.8345 1.34148
611 1 1 2.32096 17.172 5.31771 0.781866
6866 1 1 7.14206 2.41891 1.91498 1.39349
687 1 1 5.83691 14.9748 2.32824 0.115383
7300 1 1 7.10099 -0.00302958 2.36736 0.598655
1328 1 1 5.6751 18.7363 3.15728 3.22113
96 1 1 7.32343 18.1252 3.1104 3.13248
6079 1 1 7.86709 0.505219 1.75125 2.79923
173 1 1 7.88414 18.4602 35.1373 5.17574
7950 1 1 9.59866 16.8697 37.6111 0.576716
696 1 1 10.4508 17.6705 3.67052 1.14106
1616 1 1 11.4779 17.9451 4.09319 1.89562
20 1 1 13.3772 13.8089 1.13057 0.909665
1588 1 1 13.2268 0.0751086 1.212 5.14704
6872 1 1 15.1088 15.94 2.24727 1.42137
881 1 1 18.4816 16.4599 2.56457 0.129079
1269 1 1 16.9142 18.2518 2.62117 1.51422
7497 1 1 16.8431 17.2579 1.7449 2.44612
7744 1 1 16.7805 18.3907 1.36397 0.627082
1607 1 1 18.65 0.497063 2.70814 6.73524
18 1 1 17.5892 0.241735 2.95723 0.383633
2026 1 1 2.01359 2.26013 1.47924 0.59506
547 1 1 4.12451 0.961095 2.50524 2.11756
1327 1 1 5.37298 0.331896 5.47094 4.2406
633 1 1 3.73484 2.56424 4.17699 0.79475
1738 1 1 3.46544 1.49897 4.28186 0.0679356
2126 1 1 8.27913 17.3017 4.53992 1.04475
7982 1 1 8.15091 18.4593 3.84987 0.952933
1168 1 1 9.13889 0.525788 3.6556 1.24502
497 1 1 8.14294 0.247273 2.78167 0.186859
1579 1 1 10.7154 17.9009 4.82114 1.82405
7150 1 1 9.66442 0.630062 4.85329 4.24435
7821 1 1 12.6478 18.6405 3.10315 0.428602
7669 1 1 12.5357 17.8233 4.51728 2.53485
7980 1 1 13.691 17.9089 5.586 0.605376
2270 1 1 12.0528 1.1825 4.65897 3.01614
430 1 1 14.4055 0.772026 4.00611 6.02852
1413 1 1 18.2357 0.852488 4.88718 1.30288
867 1 1 14.7681 1.83573 4.08067 1.17041
7028 1 1 14.8279 1.93664 3.08403 1.24601
853 1 1 16.0741 3.52234 3.03025 1.30744
1443 1 1 0.586462 1.94325 3.49078 1.74016
879 1 1 0.60512 0.424521 3.60758 2.1921
2030 1 1 3.9703 2.07222 2.8074 0.987887
109 1 1 2.42468 1.51593 3.60484 1.09195
7251 1 1 2.52377 3.92184 4.2775 2.80481
915 1 1 3.07373 2.45641 3.2708 1.21897
1543 1 1 7.46027 2.6604 2.89547 0.120031
1322 1 1 3.70585 4.0544 4.30508 0.866695
7989 1 1 4.67082 3.60034 4.41462 1.46843
454 1 1 8.56555 1.54481 4.21321 0.748778
1466 1 1 9.46363 0.747561 2.14265 1.02965
824 1 1 10.5093 0.0282862 3.91612 2.5393
1213 1 1 16.0245 1.96129 2.71089 0.482196
906 1 1 10.1549 16.9507 2.36035 2.69489
409 1 1 13.2705 1.1077 3.37218 0.928779
2075 1 1 13.4757 18.6147 4.44615 0.84179
1473 1 1 14.4961 18.5579 4.276 1.71515
1044 1 1 12.268 2.1954 5.04026 0.180311
1223 1 1 15.7009 3.90352 1.92575 0.354221
387 1 1 13.0753 2.3907 3.17253 3.51832
7601 1 1 16.6874 4.13233 5.5347 1.17261
206 1 1 1.88365 1.25387 2.11467 0.602094
148 1 1 2.30869 0.88368 5.85413 0.637215
874 1 1 18.6134 2.31503 4.02808 2.46842
7280 1 1 1.1687 3.20958 4.87532 0.469485
1374 1 1 0.772734 3.89822 3.28936 1.42522
6648 1 1 3.43707 3.81068 6.87551 1.67176
774 1 1 1.28005 4.15249 5.37213 0.393672
7123 1 1 5.60088 3.75625 1.53506 4.20073
2917 1 1 2.26443 3.21309 2.54474 0.380235
1365 1 1 4.02583 3.34342 2.39739 1.07564
7921 1 1 5.05887 5.67002 5.73641 3.7231
7685 1 1 5.99655 5.63906 3.65662 0.335223
1488 1 1 6.42693 2.36869 4.28723 2.30173
2177 1 1 9.42656 2.14442 2.19262 0.288989
1208 1 1 6.29456 3.06921 5.05865 0.565271
544 1 1 11.2316 2.87652 3.69134 0.415602
623 1 1 10.7922 18.3448 2.91186 2.12135
7010 1 1 12.873 4.16875 4.8093 1.84845
446 1 1 12.3906 3.62531 3.60208 2.8972
2139 1 1 15.1426 3.81749 2.77617 0.667253
2867 1 1 13.8151 1.64436 4.90646 5.01887
1539 1 1 15.2315 2.71061 4.3462 2.67973
1422 1 1 16.5015 2.70277 5.34222 1.3132
7914 1 1 14.8367 3.6275 4.87599 2.78934
828 1 1 13.8859 1.99239 3.58297 0.847076
982 1 1 17.9677 3.23039 3.48883 0.897486
1041 1 1 17.7642 3.39531 2.02623 1.51874
47 1 1 18.5743 5.93152 5.37196 2.02161
1659 1 1 0.452969 5.26406 4.74059 1.91799
15 1 1 1.70807 6.84117 4.3722 0.125551
548 1 1 1.86237 7.0833 6.69352 0.421625
7924 1 1 3.39977 5.09998 4.74065 0.955256
125 1 1 5.97977 4.41966 0.986076 1.10674
1723 1 1 3.6187 5.01438 1.45832 3.45174
98 1 1 8.83227 5.86011 5.15007 1.56386
2318 1 1 7.82489 5.23961 2.86452 0.765827
796 1 1 10.8373 5.02085 2.94254 0.47142
6136 1 1 8.83272 2.95145 3.51566 0.383317
7666 1 1 11.7973 3.42066 4.43428 4.0594
183 1 1 9.29797 3.32876 2.59545 2.17078
1203 1 1 15.7251 4.53356 3.84039 0.364683
2017 1 1 13.8689 9.60466 4.49887 2.1488
7273 1 1 15.635 4.67764 1.00364 1.33835
7998 1 1 16.2262 3.42116 4.25237 3.1144
75 1 1 0.259463 3.44286 4.55034 0.280617
6396 1 1 1.15449 5.67017 3.90723 1.92127
1002 1 1 2.4525 6.10215 3.79436 0.654707
6848 1 1 1.92769 9.66248 3.87224 2.55664
1883 1 1 5.30121 5.88621 4.60876 0.293425
7879 1 1 3.39993 5.23044 3.39543 3.08532
1717 1 1 4.79652 6.2238 3.52747 0.143707
6767 1 1 4.91923 6.32237 2.00837 1.92013
1864 1 1 3.26774 5.60218 2.3567 1.40652
131 1 1 6.79566 6.27921 4.59413 0.494672
188 1 1 6.91686 4.4366 1.81284 2.95933
1217 1 1 7.36126 7.96139 4.05964 1.38521
7782 1 1 9.3531 5.66362 4.32254 1.60343
564 1 1 10.6341 6.83381 1.17511 0.632937
6538 1 1 11.666 6.38358 4.78405 0.172983
1927 1 1 12.3656 6.60627 3.15625 0.809455
1051 1 1 14.7193 6.35307 5.23415 0.753037
7611 1 1 15.1467 9.99038 5.06704 1.97706
285 1 1 14.3318 5.55888 3.8773 2.37552
5812 1 1 15.2445 4.75491 2.35485 0.439704
108 1 1 14.7066 5.83445 2.86182 0.988396
602 1 1 15.5667 5.41625 3.19629 0.133884
1338 1 1 0.957057 6.16753 2.1864 3.43678
928 1 1 17.0923 5.81011 4.79936 1.58846
1399 1 1 0.221259 7.82292 1.35855 1.59464
2747 1 1 17.5982 7.9769 5.12404 0.408236
996 1 1 2.63913 10.2907 4.54886 1.21513
357 1 1 4.46396 8.8774 3.78342 4.81418
626 1 1 3.1368 7.87318 3.26614 2.32365
983 1 1 7.76944 10.1374 3.7013 4.8703
568 1 1 7.47434 6.42863 1.87476 0.884518
344 1 1 8.01984 9.39207 4.37806 1.01536
2980 1 1 9.68274 7.42045 4.83473 0.731748
7322 1 1 9.00159 6.65316 4.39526 0.950039
1784 1 1 10.6429 6.57776 4.30022 0.798774
648 1 1 10.9955 8.82346 5.95566 1.88872
738 1 1 12.2391 8.53245 1.20832 1.50248
1802 1 1 13.1548 8.32797 2.24813 0.862967
1513 1 1 15.2654 8.97977 5.29267 0.0495735
596 1 1 14.0007 9.38275 2.04141 1.30137
235 1 1 16.5891 7.07867 1.24139 0.598359
240 1 1 16.9308 6.69495 3.77847 0.529209
6875 1 1 18.6908 7.45887 0.40447 1.97703
2798 1 1 0.622125 9.61343 3.94637 1.81136
134 1 1 2.87361 10.4352 3.39362 0.590245
440 1 1 3.63556 9.49484 3.18101 0.86605
1417 1 1 5.27833 8.96186 6.85111 2.49116
1001 1 1 7.44595 10.4245 2.64274 0.361716
604 1 1 6.89462 9.26182 2.07102 3.58297
1211 1 1 9.79121 8.42544 3.45459 1.14998
95 1 1 7.70693 11.2895 3.69307 0.215514
345 1 1 10.2631 7.94251 4.32578 3.83289
1460 1 1 12.4221 7.63644 2.06533 0.869794
7867 1 1 12.1772 8.61641 5.58118 1.31652
241 1 1 11.6802 9.92383 4.87631 0.442329
1250 1 1 13.8335 9.7787 3.43852 0.0298051
2587 1 1 15.0099 8.92189 4.08739 2.34954
790 1 1 15.2747 9.5503 3.07974 0.0683447
7470 1 1 14.8898 10.6019 4.28757 2.68067
6561 1 1 17.925 7.45995 3.05294 1.47563
7432 1 1 18.6077 10.1842 2.64035 0.961409
1113 1 1 15.5724 7.03696 5.94423 1.96972
863 1 1 1.04582 11.8893 5.33689 0.0855801
7721 1 1 5.10456 7.83355 3.48524 0.943288
1093 1 1 0.505512 11.8419 3.52224 1.466
7474 1 1 1.41886 12.2683 6.55023 1.77606
399 1 1 3.95257 11.1698 3.5001 0.808755
2882 1 1 5.94449 10.1055 3.47061 1.55205
970 1 1 4.06456 10.5063 4.54505 0.576269
7862 1 1 2.85957 12.4316 6.37582 0.092731
2265 1 1 8.84661 10.3825 4.27045 1.88917
1727 1 1 6.03794 12.6634 3.67395 2.90524
478 1 1 5.7165 11.5186 2.16645 2.00945
825 1 1 10.3753 9.50404 1.71196 0.580315
1296 1 1 9.25197 8.67273 2.55687 1.31416
7573 1 1 10.0804 7.20719 0.552535 1.87209
378 1 1 9.11437 11.9866 0.699855 1.53791
1332 1 1 11.1159 7.95117 3.80843 1.31194
1438 1 1 14.3839 11.5324 4.25483 0.630124
7979 1 1 13.7563 12.2879 5.54319 1.59115
1189 1 1 15.4953 11.5091 4.25727 1.88449
1072 1 1 13.5745 10.5524 4.10801 1.14206
1143 1 1 16.258 10.822 3.27973 1.83038
1728 1 1 18.5835 7.92289 3.90569 2.22285
622 1 1 17.8731 10.2325 3.69134 1.59754
1280 1 1 18.3357 13.1548 5.13957 0.276327
1895 1 1 3.8293 16.3199 2.788 2.20028
7863 1 1 18.797 13.7663 6.28094 1.16046
800 1 1 5.40741 15.0236 3.28354 2.91448
7011 1 1 18.091 14.0894 3.65176 3.15963
1178 1 1 6.65145 10.88 3.81688 0.556389
1163 1 1 1.76278 15.7268 4.95128 1.93174
1448 1 1 4.9798 13.2232 3.34274 4.61777
699 1 1 7.75346 13.1217 3.58379 3.94633
163 1 1 8.56513 12.6285 2.79616 1.13236
1226 1 1 8.76534 11.8945 3.70267 0.370269
823 1 1 9.30355 12.2274 1.9999 1.47619
1504 1 1 8.95874 11.5137 6.31206 0.0545329
7138 1 1 14.6946 12.0325 1.40178 0.143668
1799 1 1 12.8747 14.2194 3.72422 5.91039
991 1 1 15.72 11.0221 2.25675 2.20303
303 1 1 17.4424 13.3478 3.48499 1.01841
302 1 1 15.1177 13.8057 5.73596 2.05001
6563 1 1 16.9823 11.2883 4.12246 0.86201
1079 1 1 18.4063 12.2888 2.1273 0.984028
918 1 1 18.5117 14.0705 2.7341 1.33182
7754 1 1 18.1899 14.8109 5.21984 0.773469
642 1 1 1.04835 16.7694 3.52465 1.80195
7051 1 1 4.37377 14.7198 3.06954 2.3093
7515 1 1 0.174394 14.664 5.87437 0.317836
6531 1 1 4.67561 16.0195 6.113 1.59531
6536 1 1 4.13601 13.9673 5.87647 1.29776
7210 1 1 3.61038 11.9427 5.14567 1.7252
7139 1 1 6.6004 13.4295 3.98143 0.997857
221 1 1 8.43622 15.3686 4.3919 1.70676
1848 1 1 10.8754 12.1779 2.7217 3.36605
284 1 1 9.03312 17.4951 3.1059 0.979252
64 1 1 9.96665 11.5361 2.33508 0.454723
1100 1 1 11.2982 11.3247 4.27738 0.664059
7705 1 1 11.051 13.3487 1.8035 0.942255
854 1 1 16.7661 12.1603 4.8899 0.865011