ITEM: TIMESTEP
3400
ITEM: NUMBER OF ATOMS
8000
ITEM: BOX BOUNDS pp pp pp
0.0000000000000000e+00 1.8820720577620570e+01
0.0000000000000000e+00 1.8820720577620570e+01
0.0000000000000000e+00 3.7641441155241139e+01
ITEM: ATOMS id mass type x y z v_temp
7951 1 1 0.52167 0.598275 1.97348 2.81335
328 1 1 1.36669 1.08027 1.21217 0.313778
1739 1 1 2.47947 0.25472 35.2238 0.97504
1573 1 1 3.78346 0.80505 0.827066 1.69852
1198 1 1 3.44437 1.71853 1.67262 0.186351
7166 1 1 6.20173 0.984328 37.6127 1.71311
7300 1 1 5.05195 0.125354 0.537939 2.45045
1328 1 1 6.89593 1.25295 1.09322 0.219038
1446 1 1 8.92962 0.425521 0.751374 1.2831
1140 1 1 9.75008 0.535527 -0.0275233 1.46747
56 1 1 6.85571 3.44947 37.6055 0.148629
6855 1 1 9.4197 -0.00270065 36.8164 0.996459
7149 1 1 11.9647 18.7965 0.59425 1.3713
887 1 1 10.1372 18.2678 36.3435 0.294611
7745 1 1 11.2156 0.532185 36.1551 0.66168
801 1 1 12.1775 1.4287 35.8434 0.556595
1479 1 1 16.1838 18.6145 0.116307 2.35463
7301 1 1 15.0811 0.552525 37.5094 2.2171
1511 1 1 16.9518 0.211375 0.686466 1.24827
6839 1 1 17.0519 0.166977 35.969 0.60226
1672 1 1 17.4345 1.00045 2.22065 1.66434
7088 1 1 18.5663 18.7481 0.0226564 1.87128
1380 1 1 18.305 1.08038 0.0641281 0.414089
7930 1 1 2.81525 1.82182 36.84 4.46658
508 1 1 18.6116 3.71354 37.2698 2.72568
2026 1 1 3.22122 0.864898 2.3398 0.672148
1279 1 1 4.8228 2.89815 0.784501 2.98219
6494 1 1 5.01509 1.66508 37.3128 1.12696
7604 1 1 5.91969 2.54037 1.03458 2.23354
1266 1 1 6.46297 2.22736 2.23199 0.684107
324 1 1 5.39997 3.81075 0.77749 1.2421
7751 1 1 6.51502 3.40876 1.1322 0.580198
7564 1 1 7.92409 4.45459 0.129148 0.549982
7653 1 1 8.17885 2.605 36.7635 0.78319
6866 1 1 7.22447 2.49424 1.24413 0.0356123
775 1 1 11.2025 1.04739 37.4305 6.12983
7283 1 1 9.63019 3.51409 36.8671 3.08292
3337 1 1 12.0178 1.409 1.63419 1.65281
446 1 1 11.9657 3.07702 0.509706 2.59009
350 1 1 14.1845 0.865809 0.188274 2.99857
6850 1 1 12.5661 2.82299 37.0931 0.142911
1183 1 1 15.7458 2.36691 1.49038 3.38707
1020 1 1 15.2981 3.34707 1.09054 2.19465
6845 1 1 17.9094 1.44911 1.00488 1.04454
7202 1 1 18.1319 2.6754 0.849172 0.595014
1045 1 1 0.992718 4.61185 1.9416 0.278175
1713 1 1 1.59297 2.19803 0.531844 5.29538
6006 1 1 3.51428 2.43374 0.727988 3.29713
7697 1 1 2.47464 2.57489 0.923015 1.47013
406 1 1 3.68703 3.5899 0.510027 0.10884
7612 1 1 6.50446 5.03385 0.890011 1.00812
1333 1 1 9.0741 3.30967 0.0800316 1.68609
7625 1 1 7.41707 3.69969 1.24017 1.06117
437 1 1 11.8001 2.07153 0.0130898 0.714998
7032 1 1 10.7763 3.74172 1.38337 4.69231
7392 1 1 14.8949 4.40914 0.131459 3.17618
5355 1 1 18.2962 4.69824 3.2277 2.11437
853 1 1 15.5247 4.90048 0.705478 3.34325
7595 1 1 17.9298 4.42768 1.97449 0.169192
1037 1 1 0.950399 3.41158 0.529513 1.47228
6423 1 1 17.6767 4.05339 0.990574 0.164603
6875 1 1 18.1577 5.83095 36.2674 2.07233
6987 1 1 2.84925 5.26747 1.32941 3.23259
366 1 1 2.26307 4.66408 36.5841 2.3939
7718 1 1 2.99786 4.10745 1.36291 1.17557
6083 1 1 4.51478 4.55672 1.95168 1.24129
1310 1 1 2.74831 5.33214 2.35184 1.31176
1723 1 1 4.6628 5.23223 37.1674 1.42358
135 1 1 5.25791 6.83625 36.6718 2.37373
5799 1 1 7.94788 5.87879 1.42952 2.05751
217 1 1 6.42545 5.92555 2.03839 4.14997
2244 1 1 10.4472 3.00403 0.692088 2.62345
6581 1 1 8.10771 3.51607 2.47522 1.19098
7450 1 1 12.6017 4.91231 37.4745 0.521144
7155 1 1 13.0407 3.09142 1.95465 2.29323
6551 1 1 10.5511 1.53627 0.414441 0.875525
7544 1 1 14.0424 4.85194 0.459959 1.76038
1377 1 1 14.6121 5.09717 1.22544 2.01566
223 1 1 16.4329 5.94733 1.24855 1.39136
7273 1 1 14.8392 5.79008 0.358545 1.92061
877 1 1 -0.00441503 4.25768 35.5917 0.857764
645 1 1 17.2143 6.30197 0.539588 1.30509
1427 1 1 1.69133 4.81039 -0.0230092 3.5966
1562 1 1 3.43967 6.30548 1.45546 1.01074
573 1 1 0.203576 6.69512 37.5529 0.775896
7956 1 1 4.13767 5.40801 0.610642 5.52042
6152 1 1 2.84766 4.73837 0.507409 3.4429
1224 1 1 8.35638 7.3843 0.737573 3.67855
1381 1 1 8.6229 5.37985 2.48829 2.11631
354 1 1 8.76355 4.93637 1.2495 0.649892
6996 1 1 10.1711 5.51087 2.02854 5.20399
7408 1 1 10.6516 5.20005 37.287 0.686777
7466 1 1 11.2975 6.01064 2.01495 1.5752
973 1 1 13.1016 5.50483 1.13017 1.94337
6949 1 1 10.723 6.54523 0.174859 2.1584
1664 1 1 12.7397 7.67203 0.506106 0.236842
6997 1 1 12.7597 7.11292 37.1661 2.99335
6470 1 1 11.0063 5.46578 0.569953 0.0156789
675 1 1 12.7714 7.36687 2.16235 0.222958
6044 1 1 13.678 5.88095 1.90747 1.11566
140 1 1 14.8332 6.97846 2.62186 2.18726
276 1 1 13.8157 6.92856 0.0411991 2.17924
1537 1 1 16.2735 7.05291 1.61302 4.52267
371 1 1 15.8927 5.67306 37.45 1.3515
7659 1 1 17.3405 5.33302 3.20464 1.48481
3092 1 1 16.1233 6.59112 0.198532 0.784899
1757 1 1 17.3228 7.40332 1.2782 5.67527
7397 1 1 18.6285 6.79805 1.01184 2.13643
1360 1 1 0.39539 9.17521 2.03672 0.545334
7942 1 1 2.01242 7.68859 37.3924 1.0747
86 1 1 3.31664 7.84433 0.989762 3.23634
6578 1 1 4.04031 8.50634 2.69546 1.98924
6767 1 1 2.7762 8.59893 0.468728 0.243244
1415 1 1 4.84099 7.70685 37.6238 1.30831
6874 1 1 8.57885 8.48383 1.09222 0.947593
6933 1 1 9.21813 9.51695 0.349417 4.98871
7573 1 1 10.5337 7.56963 37.4215 0.666055
5690 1 1 12.1647 9.2712 1.80029 0.864754
610 1 1 12.1197 7.12568 1.28577 0.383276
5857 1 1 17.9923 9.02857 1.38775 1.21257
1399 1 1 18.6008 9.74977 -0.0436749 6.41812
5649 1 1 1.37091 8.95547 2.75308 0.506018
7026 1 1 3.10894 10.2632 1.79016 1.78921
158 1 1 4.07267 9.61732 3.91974 0.457923
930 1 1 5.10245 10.7247 37.495 3.31055
7065 1 1 5.92817 9.9753 1.6241 0.660131
7731 1 1 6.03724 10.135 0.432833 1.86741
429 1 1 7.94869 8.33703 37.375 1.86515
7002 1 1 7.92626 9.25539 0.647235 0.472965
154 1 1 6.69652 11.0563 1.96333 2.87739
1296 1 1 10.4487 8.50267 0.419819 0.241024
7943 1 1 13.3114 9.6316 0.518237 2.51778
232 1 1 15.3622 9.83651 36.3396 0.598905
1193 1 1 13.522 8.57142 0.371296 1.242
7021 1 1 14.5456 9.18863 0.869435 4.4217
1120 1 1 14.28 10.3795 1.13323 1.46086
7548 1 1 15.6808 8.96283 0.721761 1.04545
7800 1 1 16.5933 9.44205 0.163792 0.57982
3472 1 1 16.6391 8.65271 1.33043 0.386062
219 1 1 17.732 9.54992 36.9284 0.675583
7967 1 1 2.30188 9.63677 2.32407 1.91961
1349 1 1 1.91351 10.6873 2.1527 0.0701848
7729 1 1 0.798193 12.3826 1.98003 3.25797
7047 1 1 1.79677 12.0634 0.0241869 0.372312
48 1 1 4.84153 10.38 4.47531 0.588493
228 1 1 3.08601 9.76079 0.537043 0.342789
1547 1 1 6.1494 10.0301 4.14687 1.81588
1790 1 1 7.98358 9.64294 1.85561 8.86507
238 1 1 7.96694 11.7186 0.782493 0.236081
678 1 1 8.05829 11.2263 37.1064 0.787898
1385 1 1 9.38683 11.581 1.12829 0.382446
64 1 1 7.02564 12.6494 37.5943 1.73051
229 1 1 9.87877 11.6034 36.723 2.39201
969 1 1 15.9261 10.827 2.44775 0.894266
1997 1 1 13.5022 12.2502 0.604591 1.94626
7512 1 1 14.8396 11.5543 0.122423 0.670648
627 1 1 15.8596 11.2002 0.444102 0.498815
736 1 1 17.6708 10.4337 37.5697 0.453273
7805 1 1 17.0862 12.8577 36.4534 1.46988
549 1 1 2.33449 14.6037 2.8081 0.712141
1971 1 1 2.33313 12.3274 1.3069 0.433683
7621 1 1 2.72091 12.8754 2.83521 1.62436
452 1 1 3.85223 11.1063 1.65461 4.16659
1046 1 1 6.84411 13.9373 0.604461 2.00275
23 1 1 5.28823 13.1604 36.895 1.3734
6253 1 1 6.54225 11.4839 0.629277 1.01817
6723 1 1 11.1484 13.2231 0.616609 0.561913
423 1 1 14.4526 12.9497 1.06312 0.366638
296 1 1 16.6814 13.2059 0.905204 0.996775
7282 1 1 14.3186 13.7738 37.1749 0.580742
962 1 1 18.8217 10.8154 0.125 6.32047
6183 1 1 1.09257 13.3718 37.0063 0.611193
6411 1 1 0.259901 12.2007 37.471 2.02826
7060 1 1 3.26945 13.7675 36.9015 0.86682
6898 1 1 3.96882 13.0572 0.817148 0.736955
6379 1 1 4.81625 14.4391 0.844945 0.881725
7035 1 1 6.86306 14.9191 0.742195 0.607549
7457 1 1 5.84473 13.7197 0.0836498 0.228693
378 1 1 9.81843 14.6103 1.41775 1.63388
5866 1 1 7.9519 14.3244 37.473 0.909384
7620 1 1 13.4714 14.5852 0.413679 1.96641
708 1 1 11.9367 11.8749 1.30544 0.746241
7955 1 1 12.866 13.4119 2.22071 0.207262
1567 1 1 16.4404 13.182 37.4505 3.88543
7338 1 1 18.4707 13.813 2.0613 0.522423
336 1 1 17.0663 14.0755 37.4784 0.423527
7261 1 1 -0.0135973 15.3108 1.57921 3.06085
918 1 1 0.537281 15.2303 0.584635 2.6738
7845 1 1 2.54569 15.7112 36.0652 2.37993
7405 1 1 5.01455 15.368 1.05684 0.393848
1995 1 1 7.02734 15.4726 2.14522 2.7616
1561 1 1 5.18856 15.6891 37.6022 1.18571
37 1 1 7.77532 14.0981 1.48868 0.389362
6399 1 1 8.90166 14.4704 0.93004 2.67693
961 1 1 8.41913 16.6041 0.773792 2.9445
7950 1 1 10.3953 15.6806 2.61182 2.34355
1144 1 1 10.3751 15.1527 35.6419 4.32818
511 1 1 10.9801 14.4212 0.430957 2.77837
6032 1 1 12.9457 15.7137 36.8761 0.323287
7163 1 1 12.9592 16.36 0.233294 0.75062
820 1 1 12.6712 15.2112 0.242372 5.13204
629 1 1 16.661 14.8674 0.560968 0.62707
1529 1 1 14.5458 15.4994 2.70718 1.2823
375 1 1 17.2213 13.9699 1.13357 1.31644
7757 1 1 17.3706 15.6438 37.4994 1.9394
7672 1 1 18.2971 15.8697 37.1194 4.85851
1170 1 1 17.5139 15.3869 0.945366 2.11605
757 1 1 0.297315 16.3846 36.2116 0.94387
2476 1 1 2.11242 16.8395 1.2465 1.06819
1984 1 1 0.162884 16.6719 0.902246 0.963025
1136 1 1 2.75226 17.264 0.685344 2.504
7248 1 1 3.79581 16.5935 1.21056 0.934794
7530 1 1 6.02046 16.809 0.752246 1.06563
569 1 1 6.0248 15 1.6481 1.49612
7899 1 1 8.21178 16.9929 36.9972 0.852723
7736 1 1 8.58406 15.4949 37.4515 1.41674
6673 1 1 9.34061 16.7099 0.170109 0.556702
1103 1 1 11.3309 15.3832 37.1596 0.572633
7680 1 1 14.2469 16.7461 37.3891 0.223707
2106 1 1 10.9845 14.8545 1.72039 0.900992
472 1 1 14.0806 17.819 1.75523 0.697791
2109 1 1 15.6785 17.5613 1.62613 5.58363
579 1 1 17.1392 17.1308 0.216731 0.299401
1042 1 1 18.0304 16.227 0.450134 0.807055
2662 1 1 1.20453 17.67 37.6513 2.136
668 1 1 0.242921 17.7279 1.53446 0.207766
1469 1 1 3.81727 18.2321 1.0281 2.23243
7773 1 1 4.41567 0.267161 1.70618 3.93554
175 1 1 5.51977 0.118981 1.6966 1.82512
895 1 1 9.60736 17.5407 1.0357 1.50661
1993 1 1 10.1327 17.346 0.0517593 0.315986
7753 1 1 9.34813 17.2925 36.9809 0.772687
7568 1 1 13.5778 17.1983 0.372414 0.363606
1308 1 1 14.4953 18.2883 36.8104 0.821789
788 1 1 15.1092 17.0508 37.0489 1.96024
7529 1 1 16.4148 18.0671 1.10506 0.683723
1315 1 1 17.5615 17.7205 37.0598 0.978306
7434 1 1 17.8499 17.7435 2.03724 2.35237
910 1 1 1.63583 18.041 2.87896 0.953122
206 1 1 1.3701 1.09571 2.41993 2.83378
608 1 1 3.3362 1.11337 3.40779 0.742177
692 1 1 4.21184 1.06828 4.07445 1.96184
7818 1 1 7.84831 0.475085 1.25251 0.823172
6079 1 1 6.33191 0.377357 0.979764 1.99662
55 1 1 9.99644 18.6645 1.55124 3.47982
2103 1 1 8.39732 1.59371 1.22704 0.245471
343 1 1 9.99419 17.9215 2.32193 2.52315
515 1 1 12.8188 0.0765263 37.2205 0.362613
94 1 1 10.8567 18.491 2.1285 0.861915
6659 1 1 11.0634 0.767087 1.1953 0.822945
2348 1 1 12.8149 0.490474 1.83971 0.266094
409 1 1 13.5581 0.907595 1.19298 1.25168
7340 1 1 12.0904 18.5864 1.60065 0.699722
281 1 1 12.8887 0.0247243 0.856266 3.13317
822 1 1 14.4831 1.40478 2.24555 2.61687
430 1 1 14.9462 2.67525 2.69447 0.476589
1928 1 1 16.2709 0.949193 1.45011 0.461843
807 1 1 17.6896 0.419062 4.28463 0.810332
351 1 1 17.6521 17.7632 0.837797 0.973948
1607 1 1 17.231 0.211787 3.14326 0.0711651
149 1 1 0.445186 2.36761 1.02966 0.875893
965 1 1 0.0746509 1.51663 1.77419 0.642571
2044 1 1 4.2975 3.5019 1.86726 3.75823
1654 1 1 2.57345 2.19713 1.7992 0.332012
104 1 1 3.55223 2.41185 2.51308 1.41196
915 1 1 5.67141 2.89107 2.15644 0.734314
6040 1 1 7.56689 1.542 2.14357 1.27515
454 1 1 9.54695 2.26352 1.72703 4.11029
726 1 1 10.9976 2.84625 1.72746 0.858984
1270 1 1 11.8672 2.23673 2.33001 0.822998
6241 1 1 13.1619 3.04869 0.790024 1.48458
828 1 1 13.206 2.02449 1.51322 2.88128
7440 1 1 16.5447 3.54265 37.4446 2.52832
7028 1 1 12.8181 1.81228 3.8759 1.57147
552 1 1 16.4541 4.70409 1.87042 1.9181
1591 1 1 17.9066 2.10654 2.51625 1.21174
914 1 1 0.193521 3.13863 4.29031 0.665616
7633 1 1 16.7634 2.25628 1.85279 1.63209
383 1 1 0.215589 3.75379 3.27687 0.15057
643 1 1 0.73636 3.114 2.17044 2.78942
115 1 1 1.11806 5.02348 3.16865 2.17254
7660 1 1 1.8007 3.6346 1.30584 1.72034
489 1 1 3.51774 4.26237 2.35343 0.790741
1322 1 1 4.78985 2.53294 1.72293 1.47547
7879 1 1 5.19633 5.95482 1.92162 1.32613
1237 1 1 5.69959 4.43757 1.64629 0.442942
1850 1 1 5.67175 5.23339 2.44596 0.394708
188 1 1 6.68887 5.67419 3.43728 1.22352
7861 1 1 6.88546 4.06598 3.11841 0.545885
6922 1 1 8.77186 2.55573 2.6532 3.3645
580 1 1 6.58526 4.61959 1.83385 0.937612
183 1 1 9.30615 3.40685 3.50505 0.11088
593 1 1 9.09324 3.28459 1.71676 0.699405
7468 1 1 11.932 3.32484 1.85723 4.16503
2139 1 1 13.4315 4.50278 2.05633 0.0451915
1213 1 1 16.0318 3.31047 2.79831 1.6206
1203 1 1 15.6021 5.34073 1.67265 1.16493
982 1 1 18.7258 4.50487 0.910511 3.047
1409 1 1 0.944463 5.92185 1.92685 0.351892
7938 1 1 3.32972 3.58663 36.5212 2.99509
1338 1 1 3.20354 6.80274 4.76452 6.27367
936 1 1 2.91176 3.24179 2.12335 2.94273
6605 1 1 5.35935 6.19426 0.465664 0.369164
2318 1 1 6.16255 5.14432 4.26772 0.827296
6216 1 1 5.16377 7.22698 0.827769 4.04731
125 1 1 7.81442 4.58846 2.56575 4.86597
61 1 1 10.6451 3.66688 4.53626 0.863174
6566 1 1 7.62781 5.342 3.11316 1.37259
164 1 1 10.7779 3.63899 2.68284 0.513573
7348 1 1 12.4769 5.14794 4.43597 0.990945
285 1 1 12.1388 4.38946 2.28694 0.438342
5812 1 1 12.4268 6.22247 1.64291 6.77372
651 1 1 17.183 5.37748 2.12869 0.142687
7358 1 1 17.945 5.40278 1.16096 2.93054
602 1 1 16.5886 4.89225 0.853427 0.338557
1715 1 1 0.576514 6.29611 3.05593 0.662876
137 1 1 18.2821 5.91812 37.6216 0.161078
314 1 1 0.25109 5.17329 2.53439 2.15002
72 1 1 2.16241 6.34892 1.67923 1.30814
802 1 1 0.975532 6.02691 4.18325 0.699756
6561 1 1 0.1345 5.56502 1.06093 0.568839
305 1 1 0.80095 7.39139 4.62294 1.22151
7944 1 1 2.23028 7.40738 2.19972 0.202494
7803 1 1 1.76696 4.59692 1.0263 0.448988
1864 1 1 2.86726 6.64868 2.81989 4.32945
6971 1 1 6.29242 6.98523 3.85021 1.26624
190 1 1 2.25468 6.67879 0.577947 3.63192
7387 1 1 8.72943 5.86273 3.39612 1.28246
1781 1 1 8.74375 4.25936 3.07805 0.628362
7094 1 1 9.71333 4.54802 2.92558 3.03589
564 1 1 10.0688 4.73876 0.880571 0.581202
1450 1 1 11.6976 5.94477 3.63267 4.27391
7719 1 1 10.7982 5.28272 3.02179 1.83496
550 1 1 13.7857 7.98165 1.9621 2.53144
108 1 1 10.8733 4.99919 1.46944 0.951393
271 1 1 14.7464 5.86789 2.18699 1.20187
486 1 1 13.9057 6.6569 3.35995 2.8693
956 1 1 15.2096 5.71341 3.09436 0.700425
235 1 1 16.2093 5.4351 3.87001 0.156604
6719 1 1 18.1255 6.01252 2.1969 0.617309
6196 1 1 1.16498 7.70668 3.56334 2.55616
1596 1 1 2.67332 8.6704 2.30436 1.13732
7308 1 1 3.42699 7.10253 2.04506 2.3389
7854 1 1 4.77971 8.54084 4.23393 4.04371
1917 1 1 4.3637 9.50993 2.65987 0.521666
7326 1 1 4.79507 8.00745 1.6422 0.562668
1681 1 1 5.0222 9.19093 1.60655 0.711732
7721 1 1 5.73398 8.52171 2.41276 0.31812
7482 1 1 7.25575 7.5571 0.356559 1.18981
568 1 1 9.27958 9.53652 3.21797 2.07338
1273 1 1 7.50455 8.41144 1.12216 1.00608
7643 1 1 10.1188 10.0493 2.9593 0.700838
277 1 1 9.30888 6.6976 1.93913 1.14293
825 1 1 11.6421 8.30088 2.87816 1.35728
543 1 1 13.9107 9.43664 2.15222 1.39416
7945 1 1 14.3837 8.84513 37.457 1.5123
790 1 1 15.3341 7.89071 3.20175 2.26571
6159 1 1 18.1977 6.26638 3.44707 4.00684
913 1 1 17.407 6.91629 3.37933 0.992611
669 1 1 16.3293 8.09649 2.3708 2.37969
79 1 1 14.8795 7.82627 1.86507 1.67556
926 1 1 18.2218 7.63873 1.93952 1.27954
205 1 1 0.721947 7.40246 2.68827 0.691265
7717 1 1 0.712809 9.74441 2.78859 0.362772
773 1 1 2.7284 11.1026 4.16501 0.950591
2504 1 1 2.49403 9.06506 3.94588 3.63433
8000 1 1 5.6918 9.09928 4.06944 1.25144
1863 1 1 6.52768 9.39493 0.869612 0.47795
357 1 1 4.07895 9.25022 0.384567 2.23407
529 1 1 5.63072 9.61203 2.57465 2.41161
615 1 1 7.1329 9.11118 2.45705 1.95759
7335 1 1 9.55178 10.2872 2.00787 2.40775
1001 1 1 9.92127 9.44448 1.09527 2.38936
2814 1 1 9.34859 9.14055 36.9205 1.93801
7004 1 1 12.8625 10.9716 1.93818 3.57595
738 1 1 11.7959 10.0902 2.15125 1.69344
1906 1 1 12.0906 11.2937 2.41933 2.41644
374 1 1 12.4033 10.4342 2.92879 0.47069
7913 1 1 14.8163 8.23289 0.629084 1.10521
596 1 1 16.0496 11.1116 3.76627 1.93458
7432 1 1 17.1849 9.54841 3.5073 0.474749
7488 1 1 15.9358 10.0926 0.66143 2.58336
6675 1 1 17.2671 7.889 2.6818 1.79555
7966 1 1 0.388226 8.36078 2.94842 0.388945
634 1 1 18.3008 11.3091 1.73043 0.696991
7056 1 1 3.02314 10.1112 3.77753 1.85972
6232 1 1 3.69808 10.3588 2.73236 0.368409
146 1 1 3.85474 11.7837 4.61235 1.41126
6584 1 1 5.69617 11.3465 2.07094 0.870997
1226 1 1 7.72972 12.0897 1.75054 2.88308
823 1 1 9.27057 10.5671 0.981601 2.42988
955 1 1 11.4993 7.6062 2.14982 0.760881
699 1 1 7.72384 12.4909 2.91055 1.81139
342 1 1 10.0185 12.4597 0.496929 2.9402
574 1 1 9.21637 10.7952 37.1575 1.23674
386 1 1 11.5063 12.7477 1.41392 0.113276
818 1 1 14.9715 11.4283 2.8084 0.913532
2453 1 1 13.7875 10.7334 2.46205 2.56741
2353 1 1 16.6269 13.0421 2.59254 2.32041
600 1 1 16.903 11.6242 2.16622 3.50679
7888 1 1 14.9407 10.1469 0.447989 0.858949
1079 1 1 17.7585 9.70711 2.29331 3.82673
750 1 1 0.677498 10.0659 1.59137 0.385467
7128 1 1 17.5814 10.7761 1.00219 1.19902
7851 1 1 17.741 11.5293 2.67055 3.69997
1528 1 1 1.95779 12.0793 2.50165 3.40055
1006 1 1 4.9217 11.6663 2.45301 0.204727
704 1 1 5.39883 12.7826 1.86268 0.197017
7755 1 1 4.32388 12.4833 1.85392 2.29509
563 1 1 4.98404 10.3886 2.40526 1.71755
163 1 1 6.58675 12.1338 1.8793 1.08488
7704 1 1 8.92094 13.986 1.82263 1.4535
416 1 1 10.835 11.8246 1.24912 2.54712
7266 1 1 10.6907 13.1855 2.12949 1.19894
976 1 1 12.9681 11.377 2.99851 1.83314
1189 1 1 13.46 11.5173 1.40813 1.2617
7138 1 1 15.6578 12.627 1.30995 2.39979
7999 1 1 15.7049 13.6595 2.07717 1.69147
1143 1 1 15.2513 12.0634 3.51627 0.473665
303 1 1 17.0136 13.2971 4.4104 0.509086
991 1 1 17.9995 12.1321 1.08164 0.0986962
7772 1 1 1.02748 13.5006 1.80048 0.117269
559 1 1 1.90706 12.7146 3.63631 0.803392
4804 1 1 3.30089 13.6339 3.64447 0.474443
6464 1 1 2.5145 13.5019 1.5045 1.05753
1448 1 1 5.56448 13.7442 2.00894 1.84622
7217 1 1 4.74468 15.8044 3.91167 0.914924
7489 1 1 5.98358 13.5617 1.13523 1.14065
1210 1 1 8.06567 13.494 2.54389 0.952581
7961 1 1 6.65293 12.6299 3.90972 6.90104
769 1 1 8.01354 13.4715 0.476356 2.10598
1432 1 1 11.1551 13.7898 3.69927 1.2539
2347 1 1 7.89859 12.9344 1.26972 0.41033
7705 1 1 11.5901 13.7047 2.27132 2.93718
6872 1 1 11.9425 14.4084 1.36326 2.51008
209 1 1 14.1351 14.7784 1.15747 1.14094
1406 1 1 16.6531 14.2877 1.99567 0.412007
1077 1 1 15.6096 14.7024 1.36924 0.682977
255 1 1 17.416 13.6575 2.28597 0.744853
1910 1 1 1.4125 14.2851 0.973442 0.658029
1999 1 1 18.3786 16.3572 1.90452 4.18847
7404 1 1 4.31941 14.7319 1.94644 2.78621
1729 1 1 6.95251 16.9506 0.365862 0.355894
687 1 1 6.66519 14.0304 2.46838 1.25465
239 1 1 8.30995 15.3167 1.72453 4.27857
89 1 1 9.86994 16.7238 2.85362 0.603
640 1 1 10.5413 14.1519 2.94751 1.74498
2373 1 1 12.5573 15.8248 1.4324 1.14294
1439 1 1 12.6147 15.9864 3.58446 0.900016
7052 1 1 14.2889 15.7269 37.4839 4.94814
7444 1 1 13.6436 13.8817 2.87421 0.157867
7545 1 1 13.6182 14.9422 37.1129 1.0906
234 1 1 1.75588 13.0846 2.70148 2.47406
6824 1 1 18.053 16.9678 2.68137 1.40007
1590 1 1 18.56 14.3513 0.993641 3.36705
954 1 1 1.0413 16.6325 3.44732 3.39412
1282 1 1 2.07057 16.7938 3.93494 1.35554
785 1 1 2.73707 14.9648 1.0835 2.54678
1634 1 1 1.91865 17.0496 2.76633 2.19015
1245 1 1 2.93133 17.4437 1.93232 2.73638
7957 1 1 4.92726 16.4397 1.53097 0.391597
7303 1 1 5.18843 17.4117 2.76525 1.34129
1337 1 1 5.92834 16.1907 1.78788 2.04083
381 1 1 9.5762 17.1818 3.7114 3.59305
1453 1 1 10.2387 16.8402 1.82099 0.0429844
2224 1 1 11.0307 17.8135 0.886195 1.75776
841 1 1 10.5563 15.599 0.171903 3.90225
6582 1 1 10.9057 16.3585 1.21855 0.376266
809 1 1 11.846 16.6195 0.873826 2.88004
948 1 1 11.5352 15.6369 0.497593 2.02612
1186 1 1 13.4676 15.5337 0.889776 0.6571
1986 1 1 14.8984 15.5306 1.39441 1.12146
7497 1 1 14.666 13.7226 2.69868 1.84004
500 1 1 13.8972 16.4433 1.03724 1.49133
7977 1 1 18.549 17.265 0.126473 0.357397
7116 1 1 0.940085 16.597 1.4634 6.08962
7947 1 1 18.4401 18.6664 2.331 1.86284
1509 1 1 3.38146 0.212419 1.50015 0.264292
332 1 1 3.25299 18.4195 2.92984 1.42598
215 1 1 2.82122 18.6086 4.83091 1.39919
7613 1 1 6.34804 0.95651 1.95825 1.65723
504 1 1 5.12548 17.3503 1.45902 3.69604
96 1 1 4.13695 0.0811629 3.60223 0.49718
763 1 1 8.85083 17.9611 1.74504 2.75634
1675 1 1 5.94806 18.7055 2.57223 0.316586
1416 1 1 7.03569 18.0402 1.38171 3.61888
1196 1 1 9.42393 16.05 1.25316 0.536104
898 1 1 9.45595 18.2263 3.62714 1.10876
7452 1 1 11.4363 17.2785 1.85221 0.248252
1339 1 1 11.2437 0.0979411 3.15334 1.31054
980 1 1 11.3375 16.9854 0.116827 2.80606
1588 1 1 11.1311 17.325 3.08788 1.96572
1589 1 1 12.7821 0.153531 4.00779 1.75312
505 1 1 12.6979 17.2274 1.82347 0.912488
7246 1 1 11.7348 16.5639 3.80165 1.35987
653 1 1 14.109 0.284975 2.18496 1.46003
1269 1 1 15.1067 17.202 3.54381 2.92995
1129 1 1 16.106 15.9329 0.787686 0.750703
7744 1 1 17.26 18.4613 1.60834 2.49901
1367 1 1 17.4046 16.7796 1.24904 1.92925
109 1 1 0.680065 1.97953 2.63913 0.428514
845 1 1 1.45492 0.916889 3.8396 2.95917
2089 1 1 5.68181 0.383737 5.23236 0.186242
547 1 1 4.58035 1.04369 2.24163 2.07673
7197 1 1 5.24697 1.0042 4.20171 2.43914
6777 1 1 5.47329 1.77391 2.39471 1.11504
7982 1 1 8.01185 18.6117 3.99434 1.13108
171 1 1 6.1413 1.05871 3.77161 5.00122
1734 1 1 8.99245 1.5482 2.68124 2.29936
1466 1 1 9.98185 1.2336 1.3928 4.18305
2204 1 1 10.125 0.353844 2.80589 0.580106
7821 1 1 9.26291 0.598572 1.87153 0.395175
7539 1 1 11.2439 18.2623 36.597 0.051607
2867 1 1 13.7624 1.10505 4.10385 0.838088
7422 1 1 11.288 18.587 4.79273 2.16688
867 1 1 13.7788 18.7764 4.38218 2.41397
1007 1 1 15.1237 0.565923 3.5385 0.96658
772 1 1 15.6688 2.52529 5.17197 1.61194
126 1 1 15.7187 1.76836 2.27688 1.11895
194 1 1 18.7943 0.964805 4.71648 1.37342
3242 1 1 16.6778 1.05567 3.95028 0.992279
7937 1 1 1.15659 2.14479 5.3487 2.04401
633 1 1 4.71015 1.85621 4.81437 0.343641
1738 1 1 2.58098 1.70058 3.69285 0.595931
2030 1 1 2.77257 1.01338 4.43624 2.11659
1365 1 1 4.46246 2.72079 2.88095 1.6682
1309 1 1 5.94638 18.7692 4.01791 5.16807
1488 1 1 6.28329 2.24043 4.58768 0.0625186
1543 1 1 8.28828 1.83151 3.29472 2.10933
1661 1 1 10.0945 1.64731 2.61584 2.36599
7535 1 1 9.02214 1.18037 3.70818 3.21395
189 1 1 7.96209 1.16694 3.90077 3.04397
2177 1 1 9.83566 3.28983 2.40707 1.49054
544 1 1 10.4398 1.64377 5.525 1.82328
1044 1 1 10.7876 1.7397 1.47292 1.42206
742 1 1 12.6379 2.20166 4.75769 2.20483
3071 1 1 14.2232 2.78894 3.41569 2.77741
7830 1 1 15.8057 2.25717 3.9334 0.889573
1354 1 1 16.2451 2.3196 2.9391 1.55558
7758 1 1 16.1378 3.29952 3.92936 0.627503
7423 1 1 16.1874 18.2753 2.355 1.15348
874 1 1 18.2121 3.15031 2.7738 2.61538
509 1 1 1.89727 5.6226 3.73091 1.23093
966 1 1 0.167549 5.44414 3.76059 2.19478
2033 1 1 3.44153 3.81345 4.47626 0.558103
2917 1 1 1.97699 4.08241 2.45581 0.248914
2559 1 1 3.12229 3.5173 3.33423 0.147617
7785 1 1 5.16016 1.83377 3.3741 1.96357
1348 1 1 6.98268 1.75831 3.59886 1.42059
7215 1 1 5.13585 3.8679 2.58112 0.4977
656 1 1 5.54058 2.96013 3.33622 3.58076
7924 1 1 6.69605 2.97389 3.81119 2.6941
661 1 1 6.64599 3.23718 2.57232 0.186352
1098 1 1 7.90394 3.37161 5.25784 0.976156
6477 1 1 7.81266 3.28379 3.74491 1.0246
1302 1 1 8.2625 4.56495 5.23286 5.14005
418 1 1 9.02381 3.20592 4.39439 0.944972
6060 1 1 11.511 2.61124 3.25612 2.3475
6136 1 1 11.9014 4.02777 4.49378 0.192233
387 1 1 12.202 4.90399 3.42613 0.347823
7185 1 1 12.4506 3.77998 3.30096 0.886698
636 1 1 13.9339 2.64032 2.10333 2.31212
1539 1 1 15.1442 3.69821 2.33103 2.27112
1422 1 1 14.4237 3.65299 3.03165 0.490771
1041 1 1 16.1866 1.07924 3.12205 4.22492
2202 1 1 18.7848 3.66978 1.70653 2.01649
7284 1 1 17.5032 5.74006 5.23627 0.750746
1374 1 1 0.523303 4.5568 3.93654 0.160666
7841 1 1 3.77392 5.94927 3.10835 1.38501
6026 1 1 2.73883 4.77536 3.42809 2.79907
3 1 1 3.91449 5.39774 1.839 1.15665
82 1 1 6.77522 3.94749 4.10379 2.02263
985 1 1 4.47661 4.79451 3.11463 0.777348
7123 1 1 5.89818 3.88059 3.56371 0.733878
533 1 1 5.16871 6.28169 5.20313 1.54893
214 1 1 6.7688 5.81385 5.54877 1.9846
7663 1 1 9.14161 3.79892 5.46961 0.724731
1291 1 1 10.4503 3.9464 3.64155 0.823794
7644 1 1 11.9649 7.26659 4.25187 1.53566
588 1 1 13.1756 3.94592 4.19378 0.818651
3586 1 1 15.0384 4.62056 3.10077 0.345947
7725 1 1 13.3245 5.51994 3.13493 2.17509
4139 1 1 17.9372 5.28641 4.16823 1.65316
928 1 1 1.61399 6.87253 2.92104 0.870982
7646 1 1 16.9342 6.03793 5.99865 0.834902
7992 1 1 18.2382 6.15574 4.45164 2.09115
1002 1 1 3.69696 6.06577 4.29971 0.556993
6804 1 1 0.54698 5.76287 5.30714 0.858992
2162 1 1 1.76664 7.0644 5.34447 0.329348
153 1 1 4.43896 6.74154 3.33987 1.49763
5747 1 1 7.21387 7.34117 3.37898 1.22039
2608 1 1 7.34263 6.51961 2.15227 2.48819
117 1 1 8.05141 6.69697 4.51148 2.66495
2311 1 1 5.65599 7.18176 5.42678 0.813888
7683 1 1 6.6634 7.15268 4.86611 2.9995
2589 1 1 7.96025 5.58018 4.13105 3.79599
553 1 1 8.92918 6.3219 4.56326 0.32794
7782 1 1 11.4913 5.42018 5.08135 0.256517
1784 1 1 11.0823 7.09309 3.65357 1.83701
1460 1 1 10.7992 6.03443 4.17227 0.790576
1927 1 1 12.7844 6.32699 3.73815 2.1361
591 1 1 13.0995 6.74045 5.03171 0.361586
240 1 1 14.2393 5.59241 3.5951 0.0313554
102 1 1 15.2992 6.80105 3.90443 0.752789
2798 1 1 16.5747 6.65812 5.16792 1.14423
1728 1 1 18.5588 7.76039 3.58938 0.307786
107 1 1 0.66753 9.00737 3.98288 1.20947
667 1 1 16.3144 8.64593 3.39603 3.42556
7242 1 1 2.65605 8.20562 3.52193 0.197748
7641 1 1 0.854262 8.69317 5.58338 0.534694
925 1 1 2.96019 7.71836 4.43846 0.968936
1717 1 1 4.59413 6.90603 1.72127 2.56724
5817 1 1 5.50369 8.11914 3.47333 0.632805
1217 1 1 7.99661 7.57815 1.53257 3.31969
404 1 1 4.75156 8.77762 6.09896 0.446422
1194 1 1 8.33399 9.87399 2.86153 1.22309
604 1 1 10.0582 7.28751 3.98713 1.93558
345 1 1 7.99921 9.10042 3.32062 1.80789
7538 1 1 10.9221 9.37923 2.9578 3.12703
7322 1 1 10.2487 6.85812 2.56536 0.695526
216 1 1 10.1255 8.74569 2.70727 1.7605
1069 1 1 12.5537 7.85186 3.18319 1.80809
557 1 1 11.153 8.35032 3.72272 1.13885
1833 1 1 12.3524 9.23548 2.78466 0.936594
7739 1 1 13.2649 9.16451 4.08218 1.32655
6619 1 1 13.2468 6.54012 2.58375 0.708223
7756 1 1 13.4376 7.60881 5.36221 0.544941
7983 1 1 17.2035 6.0905 4.13836 1.44327
957 1 1 14.2759 6.1684 5.77297 0.824941
622 1 1 16.5522 7.55162 3.62528 4.14781
7795 1 1 16.1476 9.97615 4.09125 1.11763
2151 1 1 17.5332 7.96438 3.73839 0.601819
230 1 1 0.136659 10.0156 4.97357 0.649581
765 1 1 0.850355 10.6044 4.55409 3.07978
626 1 1 4.73376 7.70886 5.8648 1.92376
478 1 1 5.31949 10.523 3.30883 3.14218
842 1 1 5.58825 7.81862 4.41409 2.4221
7472 1 1 6.61256 8.19646 3.20929 3.99642
983 1 1 6.67714 8.98771 4.75651 2.50724
1105 1 1 10.7553 10.2533 2.0947 3.27972
3068 1 1 12.0898 9.4785 3.94877 0.790485
3406 1 1 11.9884 10.9305 0.874366 0.406813
1802 1 1 13.6015 8.04438 3.00167 0.225062
2578 1 1 14.3521 10.2797 4.04291 0.646826
1250 1 1 14.4338 8.11145 4.26371 1.50432
7470 1 1 14.9512 11.4038 4.61725 1.35847
1184 1 1 14.3728 9.56799 4.96492 3.16765
1677 1 1 15.8188 9.02025 1.90539 1.61444
1287 1 1 18.1718 10.5435 3.28046 0.299953
1082 1 1 1.77885 10.5455 5.28807 3.49737
1709 1 1 17.2809 8.82136 4.19113 0.275338
369 1 1 2.5424 10.9671 3.10229 1.91785
203 1 1 1.49641 11.4912 3.76056 0.243333
7541 1 1 2.32108 13.5381 5.61 1.50531
834 1 1 1.62741 12.3285 4.86184 2.80803
134 1 1 4.91226 11.7837 3.49413 1.50261
6842 1 1 3.96294 10.8995 3.81654 0.839752
6975 1 1 5.39341 12.3915 4.26932 0.168808
970 1 1 6.20375 13.1442 2.41568 2.21948
1475 1 1 7.18364 9.60012 3.91278 1.72057
95 1 1 7.53524 10.5832 3.56004 3.24546
1968 1 1 8.74285 9.95718 4.04771 2.91076
6693 1 1 10.4389 11.3125 2.6074 0.12975
7798 1 1 11.0211 10.4911 3.09202 2.88182
7531 1 1 11.154 12.1592 2.58643 1.67191
7156 1 1 11.8847 10.6783 4.26534 1.32889
1848 1 1 11.7975 11.5988 4.89095 0.105971
38 1 1 15.2121 10.7149 3.60462 0.96564
1072 1 1 15.5943 13.2112 3.09066 1.86059
2638 1 1 16.7591 12.0993 3.21625 2.16583
1438 1 1 16.578 9.95675 5.30316 0.243626
6563 1 1 0.742523 11.1646 3.12758 1.96562
1836 1 1 17.6341 12.5353 2.40929 1.26791
1793 1 1 18.294 10.0787 0.903704 0.103529
259 1 1 1.10115 12.3598 3.01786 0.549448
178 1 1 3.82383 11.652 2.61577 0.307967
840 1 1 4.24183 12.8526 4.96661 4.39551
1264 1 1 5.54483 13.0609 3.30211 2.25394
487 1 1 8.14165 12.409 4.67385 1.51717
7139 1 1 6.76309 11.6278 2.95729 1.48521
630 1 1 8.46615 11.7419 3.01928 0.667166
3108 1 1 12.2429 13.4795 1.45727 2.2156
7834 1 1 11.8361 11.6131 3.43967 1.12279
1904 1 1 12.8967 11.7899 4.64173 2.02185
1799 1 1 13.06 12.7264 5.58437 0.755861
451 1 1 14.8938 12.5235 1.9664 1.0892
1187 1 1 16.0977 14.4795 5.68998 2.74575
7089 1 1 18.7128 13.0049 2.56333 0.0520748
7670 1 1 17.2291 13.6974 3.38109 0.950677
5605 1 1 1.53821 14.0455 3.20973 1.03624
6665 1 1 3.43544 12.2961 3.61917 1.47951
245 1 1 4.39362 12.8967 3.29347 0.428329
7811 1 1 4.15881 13.9318 4.01609 0.758694
481 1 1 6.95376 13.2095 1.45478 1.91301
844 1 1 5.71624 16.136 3.92775 1.98805
885 1 1 8.40516 14.0322 4.05133 2.3425
53 1 1 7.81393 13.1611 3.82207 1.39417
221 1 1 9.03332 13.1915 2.70266 0.50676
1295 1 1 9.06113 10.7068 2.9929 0.674696
734 1 1 9.11836 13.1202 6.03196 0.650329
7893 1 1 9.56027 14.4102 2.59008 1.00098
7040 1 1 12.6923 12.4247 3.35079 0.372963
7551 1 1 11.9317 13.7313 5.07123 0.187516
7180 1 1 13.2489 12.8615 4.69585 5.64512
1200 1 1 12.9685 15.1423 3.07772 0.11871
888 1 1 14.2052 13.4317 5.29519 0.255636
1676 1 1 0.51766 13.4855 3.60538 1.1581
854 1 1 17.4901 14.4751 4.19144 1.78103
6762 1 1 18.2989 13.8122 3.05558 1.55623
1340 1 1 18.5299 14.4413 3.99622 2.27874
7826 1 1 17.9318 15.595 2.3918 0.303794
642 1 1 1.90067 16.1784 2.14228 1.04583
7840 1 1 3.57256 14.8352 3.5711 1.28005
7051 1 1 2.89136 16.4738 4.82277 0.857224
480 1 1 3.39509 16.0608 3.49511 1.12956
1505 1 1 4.11738 14.9222 4.44047 2.23285
1128 1 1 5.18451 15.673 2.18891 0.844041
7174 1 1 6.09557 14.9624 2.83184 0.146746
800 1 1 7.20611 14.8904 3.12353 3.57607
1930 1 1 7.21884 15.6354 4.39993 0.956943
1940 1 1 8.92386 12.4209 1.76379 2.09643
6946 1 1 10.6568 15.6072 3.89002 1.5446
7678 1 1 8.54942 14.2744 3.01346 2.26319
7856 1 1 9.24369 14.256 4.74969 0.98639
3078 1 1 12.329 15.1883 4.40434 0.268261
433 1 1 9.62592 14.5857 3.65167 0.492232
1167 1 1 12.175 14.1062 3.93581 0.522327