ITEM: TIMESTEP
1000
ITEM: NUMBER OF ATOMS
8000
ITEM: BOX BOUNDS pp pp pp
0.0000000000000000e+00 1.8820720577620570e+01
0.0000000000000000e+00 1.8820720577620570e+01
0.0000000000000000e+00 3.7641441155241139e+01
ITEM: ATOMS id mass type x y z v_temp
1634 1 1 1.13035 18.4359 2.42242 0.681073
1142 1 1 17.1682 1.4455 36.5078 1.14269
7604 1 1 2.41352 16.5423 0.184993 0.890844
7210 1 1 3.31106 17.5415 3.58464 1.35077
318 1 1 2.43739 18.4552 2.87724 1.10781
287 1 1 5.49317 18.1193 37.3289 1.13484
7226 1 1 4.30736 1.67715 0.430203 0.249184
6076 1 1 6.08049 2.1904 1.33571 3.26725
7503 1 1 6.20795 2.68949 0.464559 1.10666
6017 1 1 7.40479 1.50746 37.544 1.92438
7535 1 1 8.79756 0.938525 0.444471 0.16632
2020 1 1 11.3806 17.8702 0.0990984 0.384515
696 1 1 12.2838 18.4948 2.60822 0.245734
383 1 1 13.8464 0.194101 1.81568 2.80133
640 1 1 13.882 2.17771 3.24544 1.43984
7930 1 1 17.3766 18.5936 1.90664 1.24456
554 1 1 15.7647 17.1815 34.4332 1.17916
7471 1 1 16.6457 3.57162 33.7536 2.40077
1198 1 1 1.66415 0.551027 1.50744 1.63804
576 1 1 17.8106 0.975217 0.350789 1.6553
115 1 1 17.8825 3.25624 37.5119 0.539615
816 1 1 0.335056 3.76604 3.16803 0.387754
6995 1 1 1.63445 3.57486 1.46734 1.18452
2126 1 1 6.85931 1.58095 2.32833 1.00607
172 1 1 5.70479 1.96647 36.7615 0.649791
5756 1 1 9.54386 2.17949 36.4649 0.755847
6659 1 1 9.03409 3.43683 2.73599 0.0763015
1206 1 1 8.69506 18.3437 0.348761 0.972904
7660 1 1 4.66772 3.98105 0.811334 0.435297
2305 1 1 10.5268 1.90943 36.1271 0.638484
7725 1 1 12.5495 4.12542 2.9548 5.44039
6691 1 1 11.154 0.717601 36.6967 4.18365
1308 1 1 13.2916 2.15241 2.42648 1.11742
1269 1 1 16.9774 0.687299 0.873544 1.9246
6873 1 1 11.5291 1.52476 35.7788 2.11129
7830 1 1 14.867 2.16852 4.65952 0.612251
7423 1 1 14.069 0.442745 5.54566 2.68936
1344 1 1 17.1584 1.73862 2.01695 0.096936
7998 1 1 17.9244 4.10142 1.88397 1.43227
18 1 1 18.139 2.44932 0.611243 1.02295
47 1 1 0.391423 3.2792 0.903076 0.54631
366 1 1 0.154883 5.35328 0.167005 0.348138
1481 1 1 4.92486 16.3926 0.786516 4.07767
7456 1 1 2.59502 7.05996 3.395 0.207774
7697 1 1 5.05483 4.53062 37.4176 0.892507
402 1 1 4.0281 4.18899 37.0677 0.27506
879 1 1 4.0828 3.35875 1.42902 0.932183
7667 1 1 5.98149 4.55768 36.9263 0.594197
464 1 1 9.10116 3.14683 36.3926 0.339697
543 1 1 9.57049 6.35954 1.32863 2.15938
2348 1 1 8.96947 5.94101 2.0766 1.65109
7010 1 1 13.1337 2.3908 4.51564 1.93949
73 1 1 12.3473 3.18224 37.6426 3.60904
151 1 1 15.1568 3.94641 37.1624 0.152293
1315 1 1 15.6104 1.65387 0.857381 1.17507
6648 1 1 1.12321 2.46884 0.30737 1.72533
762 1 1 15.5304 7.49786 1.33279 0.30437
791 1 1 17.7408 3.30675 35.5517 0.445333
7980 1 1 1.03799 3.26864 2.31874 1.7168
802 1 1 0.994728 5.48405 1.73728 1.22734
7879 1 1 4.4317 5.35063 0.998333 0.93536
7631 1 1 4.83452 4.37221 1.98367 2.65328
548 1 1 3.6195 6.33663 3.47908 2.17756
217 1 1 6.82454 5.03917 37.529 2.61438
1076 1 1 8.39438 4.39303 1.84359 0.289953
945 1 1 6.50093 6.68593 0.123482 2.96601
697 1 1 11.0884 8.3654 35.938 0.106386
1330 1 1 11.0818 8.66578 37.5622 1.58015
1380 1 1 14.5357 2.09176 36.7275 1.71803
7911 1 1 14.4042 3.5704 0.107303 0.110428
2160 1 1 16.953 6.75743 37.4301 1.76775
7937 1 1 0.654184 4.34097 0.808714 0.157872
1713 1 1 18.6703 4.10335 36.2764 0.656047
924 1 1 0.292145 10.3011 36.3302 3.54728
34 1 1 17.3049 4.67112 35.8234 0.904725
6762 1 1 1.27382 8.47671 1.42681 1.29671
1158 1 1 3.75434 3.32955 36.3974 1.45368
997 1 1 5.69432 8.03308 0.889266 1.10487
645 1 1 4.30959 6.45658 36.6863 0.513588
930 1 1 6.11289 9.07145 36.631 1.91556
568 1 1 8.17283 8.14715 1.92718 3.0078
7748 1 1 10.2583 7.28801 1.75233 0.357959
7921 1 1 6.21493 6.77033 3.38795 0.783085
5854 1 1 7.65836 6.38314 35.9404 1.36241
6669 1 1 15.1687 8.89258 1.85464 0.856025
6497 1 1 11.8133 9.42636 2.30246 3.08838
7420 1 1 10.4391 5.22238 35.8665 0.990009
214 1 1 10.05 8.4236 1.09127 0.354124
721 1 1 9.81345 9.87977 0.747914 0.67527
181 1 1 12.8015 7.80112 0.804411 0.512078
193 1 1 8.58495 6.98106 0.708776 3.47822
7972 1 1 14.5586 6.44783 1.2064 0.467606
1359 1 1 15.7554 5.90116 37.5434 3.32964
7641 1 1 0.330218 7.14301 0.837292 0.392667
1318 1 1 18.553 8.46087 2.01641 0.276603
6533 1 1 0.335618 6.80351 3.03943 0.128242
7351 1 1 0.65687 9.2847 35.4986 0.157873
7657 1 1 1.88048 11.6088 35.5002 4.23756
925 1 1 5.19298 7.67428 0.13952 1.59706
6235 1 1 6.41216 8.2187 0.157835 0.784648
331 1 1 4.72595 8.22947 35.6906 1.01694
7958 1 1 7.08543 7.62106 36.8015 0.401051
178 1 1 5.23567 9.88677 0.0267098 1.3951
7335 1 1 8.52717 9.0745 2.86185 0.587287
5813 1 1 6.32872 9.37193 0.265712 0.801129
6538 1 1 11.0313 7.8594 2.64247 1.6463
461 1 1 10.1144 10.9929 35.3134 0.108017
7348 1 1 12.0455 6.39689 1.37926 1.80237
6705 1 1 1.34237 7.69442 0.434496 0.624401
498 1 1 12.4805 6.74071 4.43518 0.75346
7851 1 1 16.2825 8.69044 2.4047 0.71958
7800 1 1 18.6013 10.2162 2.73531 1.16527
230 1 1 1.42567 6.30256 2.08327 1.18686
7734 1 1 18.1046 12.5702 35.5206 4.0425
1637 1 1 0.265386 8.50427 3.32086 1.2206
6987 1 1 6.60284 9.80736 2.34999 0.502635
7791 1 1 3.60871 8.59677 2.77626 0.737187
5753 1 1 7.4778 10.576 36.0984 0.896097
6566 1 1 8.54868 8.60271 37.4604 0.202091
1790 1 1 6.61117 11.4927 1.89273 0.413725
3250 1 1 9.08512 8.79327 36.5289 3.12683
1038 1 1 9.89016 7.83178 35.956 0.907723
570 1 1 10.911 9.18362 1.2484 2.43048
7943 1 1 10.6483 9.43284 2.206 2.90046
2177 1 1 9.43422 9.158 1.93607 0.929044
86 1 1 13.4201 8.47294 0.414559 0.540532
7979 1 1 13.0248 10.3039 5.50941 1.68492
79 1 1 17.0808 6.89642 0.954858 0.708335
6241 1 1 16.376 4.4984 1.55371 2.04993
648 1 1 12.7803 7.79902 2.8704 2.23089
736 1 1 0.969651 9.37886 1.25523 3.46214
1036 1 1 18.0991 9.14744 0.515007 0.962011
884 1 1 18.2509 8.05256 0.460705 5.32885
340 1 1 2.46561 12.8985 1.46522 0.659305
1350 1 1 1.49762 12.74 0.871499 0.982195
6578 1 1 3.72055 7.41185 36.4842 1.48549
1172 1 1 4.53804 10.9621 0.768666 2.98207
639 1 1 5.97293 11.2815 0.0187346 1.25764
7891 1 1 9.84015 15.8987 -0.000111696 0.472462
7002 1 1 8.86033 10.1326 2.10998 0.109544
1542 1 1 7.60932 10.2837 2.12078 0.546666
6536 1 1 7.50954 13.0465 2.87241 2.20832
7156 1 1 12.5345 10.1822 2.52334 0.262188
7452 1 1 13.03 14.922 37.0642 2.54974
7635 1 1 13.8852 10.6156 0.0747775 0.513377
379 1 1 14.2362 11.6128 37.4194 2.2171
1074 1 1 17.0446 10.1225 0.113279 2.01407
7836 1 1 18.8072 12.7233 36.4793 1.87742
7863 1 1 2.61202 14.9195 3.37758 0.848488
7446 1 1 17.0331 11.2807 37.1982 1.44459
6646 1 1 3.41725 12.959 1.55557 2.09045
8000 1 1 4.30826 13.0654 0.746655 0.0799847
7056 1 1 4.44349 13.8392 1.72081 0.940406
7621 1 1 6.38562 10.9965 0.936398 0.239645
6252 1 1 6.9802 12.1682 37.3929 0.897044
532 1 1 7.25406 8.78849 35.9798 1.18142
7065 1 1 8.10223 10.5946 0.103146 0.478676
7457 1 1 8.77813 15.6466 0.891592 1.09762
1178 1 1 9.93968 13.3684 1.87101 0.390712
7704 1 1 7.65724 11.6732 2.3153 0.10406
6699 1 1 12.7983 10.8634 37.4091 1.774
1976 1 1 12.4758 10.8091 36.2547 2.02337
57 1 1 15.9946 11.182 36.842 3.06319
234 1 1 16.5216 13.9837 0.579703 1.01071
7189 1 1 18.2561 10.9486 35.8032 0.994476
7847 1 1 2.36966 13.9964 3.52131 1.01032
6243 1 1 3.29895 14.985 1.5082 1.47711
7051 1 1 2.58514 13.7861 4.78388 1.06891
7610 1 1 5.50578 13.7602 2.58386 1.54217
1081 1 1 9.94563 13.8025 37.4272 0.654641
1144 1 1 8.17886 13.3802 1.58041 0.999231
6898 1 1 7.80644 12.9807 35.5069 0.836154
67 1 1 7.83853 12.297 4.49305 0.175145
38 1 1 10.0961 12.5198 1.04123 1.3182
377 1 1 12.3232 15.0862 0.769784 0.319681
501 1 1 14.9977 11.1722 0.551726 2.53507
7826 1 1 17.9078 13.8983 0.783534 1.09777
7483 1 1 15.9657 11.6987 0.247724 3.03543
7052 1 1 17.2547 15.1684 2.85859 2.10781
579 1 1 17.4268 13.0465 1.43194 1.07509
634 1 1 17.6451 13.0306 0.346797 0.870695
962 1 1 0.561299 13.2003 3.5264 1.97847
704 1 1 5.66593 15.1557 0.0855596 2.44878
1529 1 1 2.13098 14.5644 0.962282 0.205745
6321 1 1 5.89763 0.549068 3.71634 0.867495
203 1 1 3.12984 12.9633 3.7861 4.67531
154 1 1 8.09419 11.0432 36.7285 0.370927
734 1 1 8.37159 11.6516 37.5863 0.714116
6379 1 1 6.27321 14.7271 1.08213 0.4572
1908 1 1 9.09981 14.3815 0.736958 0.125594
7569 1 1 8.62968 16.6312 0.417565 0.0377887
227 1 1 9.58817 16.2802 1.27889 0.859084
1134 1 1 10.2105 16.8729 36.4721 2.08029
22 1 1 13.8963 16.412 0.737103 1.05752
1143 1 1 15.7848 13.642 2.3951 0.370364
1474 1 1 17.3664 14.12 37.5561 2.35623
7548 1 1 15.4946 14.8065 1.60987 0.550578
668 1 1 17.5746 14.8566 36.3702 1.99256
559 1 1 1.5443 15.3351 0.0439263 2.11558
2134 1 1 0.329454 17.9838 36.2976 1.38064
311 1 1 0.627317 13.8177 37.3129 1.50295
7934 1 1 2.70254 0.630508 2.94867 1.25117
439 1 1 2.79499 15.2475 4.36606 1.18223
7767 1 1 5.40946 15.6081 35.0512 0.101398
399 1 1 4.37349 15.299 2.33977 4.30393
7214 1 1 10.5416 13.8774 33.7081 3.38271
7180 1 1 8.6231 12.8558 34.8226 1.87524
6835 1 1 5.648 18.7124 0.960085 1.81424
7206 1 1 7.53578 16.8036 0.137336 4.05212
7616 1 1 8.68553 18.6807 36.8236 0.562833
841 1 1 11.656 18.1307 1.91606 1.4309
7736 1 1 10.7691 15.611 36.8719 0.476818
7779 1 1 10.701 17.1145 33.9663 1.24299
2343 1 1 12.5647 16.7707 36.5479 1.03515
1916 1 1 14.6116 14.2223 36.8432 1.20506
6913 1 1 15.891 11.5774 3.1531 0.82675
2038 1 1 15.499 17.5247 36.5936 3.19592
7855 1 1 0.619402 14.3669 1.88231 1.42721
1042 1 1 16.8198 15.8247 0.251089 1.17214
7999 1 1 17.6876 16.7643 0.715743 2.0331
1569 1 1 0.582532 16.0764 37.0347 0.536049
7265 1 1 2.1925 1.35546 1.16277 2.79473
332 1 1 3.54963 17.0835 1.87744 0.177603
6777 1 1 2.6576 17.8081 0.7526 0.526076
6866 1 1 4.54445 17.3911 2.04589 0.618811
7267 1 1 5.10098 0.521882 0.154943 0.786247
1729 1 1 3.6499 17.971 2.5408 0.286137
43 1 1 6.55513 14.6267 36.8865 1.39243
7581 1 1 6.03673 16.9218 37.4811 0.903903
7678 1 1 6.97546 18.2957 2.9361 1.92028
1895 1 1 4.05092 13.7455 3.52198 3.43012
708 1 1 9.62462 17.3327 0.434611 1.75607
7961 1 1 8.58775 17.0044 3.397 1.9182
7705 1 1 11.9496 14.6458 3.71996 1.88424
356 1 1 13.2008 17.1278 0.623824 1.90253
6636 1 1 14.7741 17.8878 0.772671 1.35573
343 1 1 12.2534 16.672 1.83346 0.383015
6723 1 1 13.4927 15.4606 1.4876 2.10014
7088 1 1 17.7084 2.46626 1.66139 1.57319
3499 1 1 17.5776 0.00987648 36.9188 2.45694
7261 1 1 18.5592 18.6739 1.35231 2.89861
489 1 1 1.44946 0.247863 3.50663 3.40586
1168 1 1 7.57236 0.359939 3.18269 0.845801
445 1 1 3.40195 15.0808 2.50626 1.0587
1930 1 1 3.3333 1.38642 3.44115 0.418707
1257 1 1 4.91119 18.4359 5.57822 1.73996
497 1 1 7.89234 1.10962 3.97374 1.2241
89 1 1 9.3119 17.6602 4.10236 0.631857
1208 1 1 7.61555 2.05221 3.27909 0.640867
7785 1 1 6.55474 17.9425 2.0589 1.82838
505 1 1 12.2487 3.10893 1.69791 4.09084
7745 1 1 12.2712 0.598398 2.00159 0.627718
1339 1 1 10.3951 18.2556 0.897577 0.762424
677 1 1 14.7173 0.89466 1.50877 1.10705
700 1 1 11.1218 1.18534 3.10762 3.67415
31 1 1 0.0643575 2.3713 1.60002 0.895033
7478 1 1 17.0422 17.4413 1.0222 0.678281
787 1 1 17.1622 1.24272 3.44734 1.31442
351 1 1 18.7038 0.606408 0.717299 4.93745
7647 1 1 18.275 0.0341425 0.0391764 1.71859
1718 1 1 2.64341 0.019438 3.75551 3.52087
1766 1 1 0.992579 17.4355 3.42014 2.60389
547 1 1 5.37057 1.7936 0.632751 5.28806
936 1 1 4.66582 2.34464 2.02229 0.284626
2026 1 1 3.76777 2.62151 4.36142 0.493804
569 1 1 4.89306 1.10969 35.8764 2.36324
566 1 1 9.0697 0.776505 3.39483 0.858407
633 1 1 6.4448 0.296123 2.70324 1.2032
886 1 1 8.22495 2.12857 4.31383 1.43741
593 1 1 11.8152 1.66751 0.81383 0.147113
173 1 1 9.53036 17.1917 2.92995 2.93975
7332 1 1 8.53945 3.49005 1.23858 0.663364
21 1 1 10.7151 2.92442 37.0271 0.442771
7155 1 1 13.7576 3.63217 2.91191 0.771235
7669 1 1 13.79 1.60022 1.28807 0.210201
1020 1 1 13.7152 2.0886 5.28024 0.788838
859 1 1 15.8543 17.4916 1.62018 1.2913
7549 1 1 16.6916 2.55508 5.39606 1.28368
1348 1 1 1.10236 1.53743 1.52645 1.14143
7440 1 1 18.3104 1.60537 1.20806 3.66332
7903 1 1 1.7959 2.38176 1.55443 1.07476
7795 1 1 1.43794 7.56151 3.26543 3.112
7284 1 1 3.25673 4.17665 3.51973 3.53644
6767 1 1 4.56491 6.8453 3.26557 1.33219
835 1 1 5.20671 2.81739 37.2743 2.33833
2824 1 1 3.86239 4.50736 2.37406 0.244044
7718 1 1 4.89018 2.96618 1.02009 0.133984
7653 1 1 7.23738 3.36287 1.25281 0.177285
7215 1 1 5.81882 6.20192 2.28578 1.17004
623 1 1 7.12038 4.13214 1.9797 0.27856
1416 1 1 7.40196 0.248483 1.84874 0.0341934
7666 1 1 9.78805 3.63413 0.575819 0.52578
492 1 1 11.1551 5.3425 2.02742 0.528586
7387 1 1 9.58893 4.43751 37.3947 2.47964
6541 1 1 13.9558 4.57332 3.24455 2.84812
7246 1 1 16.3507 1.93088 3.48828 1.52428
7938 1 1 0.580953 0.669195 3.12901 3.57169
651 1 1 16.8255 3.31891 1.50138 2.83391
7844 1 1 16.2668 6.48135 36.254 2.45648
6975 1 1 1.02187 7.12787 1.59699 0.674764
5621 1 1 0.177956 7.19416 5.4113 1.61053
6396 1 1 2.4295 5.08381 3.03198 2.34724
7659 1 1 2.93946 6.15387 2.64493 0.517499
1237 1 1 4.38167 3.20896 2.5555 3.23664
15 1 1 3.70155 5.23577 3.71504 0.569503
7251 1 1 2.92942 3.41609 2.39954 0.376867
7924 1 1 5.30891 6.15894 4.61705 1.01881
661 1 1 5.99905 4.40094 1.95739 0.944558
7532 1 1 6.93823 4.7865 3.08731 0.982033
585 1 1 8.14845 4.23982 3.00358 0.883711
934 1 1 9.8274 4.20785 1.50867 1.92011
6703 1 1 11.3131 4.81519 1.18654 0.187545
1369 1 1 8.73174 7.44792 37.3618 0.0602257
91 1 1 13.3813 6.91193 1.28369 2.38872
528 1 1 8.30278 3.18902 3.87436 0.524695
985 1 1 11.8005 7.28836 3.1446 0.498485
387 1 1 15.1068 2.05853 3.26796 0.830041
1473 1 1 16.0719 2.69959 1.02176 5.41996
271 1 1 13.6642 3.93483 0.780602 3.04047
511 1 1 16.3705 1.38023 1.36786 1.01271
966 1 1 17.311 3.87637 0.548389 0.791065
914 1 1 14.5549 2.78238 1.03786 0.162781
7432 1 1 17.2378 5.09157 1.31931 2.1224
7966 1 1 3.26445 7.88761 1.80437 1.52041
206 1 1 15.9127 2.62862 2.12997 0.826251
7967 1 1 1.92704 7.93343 36.9763 2.80959
442 1 1 2.20117 9.0194 1.2614 1.69939
7944 1 1 3.47444 9.30123 37.5588 2.2361
7803 1 1 4.55995 8.26148 0.849467 0.834074
1177 1 1 7.16891 6.94908 3.73632 0.0102809
6136 1 1 7.57331 5.20259 2.07166 2.26454
7663 1 1 6.94038 6.46429 1.24768 0.477946
7138 1 1 12.0311 9.96742 4.31019 0.875466
7904 1 1 6.90305 5.86892 2.9944 0.249113
1051 1 1 10.4784 5.06791 2.76174 1.84588
7422 1 1 12.3871 5.41028 3.63034 0.256763
469 1 1 13.0602 6.32172 2.32567 3.40491
7611 1 1 15.127 5.57948 5.26795 3.36777
188 1 1 11.7062 8.45303 1.83047 0.728756
1329 1 1 12.8144 4.61032 0.464114 0.11024
5812 1 1 15.2062 7.39457 3.72809 0.928518
35 1 1 14.5088 6.48303 35.6685 2.06971
1377 1 1 13.8892 3.36879 1.82993 4.88836
2197 1 1 16.2234 5.91963 2.30412 1.85443
7544 1 1 15.7354 6.46827 4.5459 0.0973804
223 1 1 16.2364 6.71379 1.68559 2.60308
72 1 1 17.7545 6.10478 0.815972 1.52715
75 1 1 18.6005 4.05771 4.49592 2.81453
2320 1 1 13.638 8.86765 3.96359 1.82607
5817 1 1 4.29343 7.52026 1.50787 3.87359
7322 1 1 8.97073 7.23432 3.82082 0.426854
626 1 1 5.13132 8.15767 1.67116 0.829122
7738 1 1 4.29414 6.47621 2.30858 0.987449
1648 1 1 9.04293 5.70371 3.37766 0.62316
571 1 1 11.1928 6.96067 4.9105 1.33979
5690 1 1 11.0768 7.37259 3.8102 0.289364
2244 1 1 11.4774 10.0047 1.47269 0.707823
122 1 1 10.1695 5.56215 3.65238 2.05072
1441 1 1 14.5293 7.2323 4.53913 1.28371
276 1 1 14.302 6.32944 0.162114 0.999341
108 1 1 16.3544 7.8877 0.44648 0.564671
186 1 1 14.8161 10.344 3.78616 1.9793
1314 1 1 18.5483 10.2804 37.236 2.23002
1005 1 1 2.88235 8.56982 36.8973 1.61438
7326 1 1 5.813 10.0332 0.927536 2.34777
1681 1 1 4.55366 11.9371 1.37858 0.548278
6874 1 1 7.66772 8.49475 0.373452 0.946306
1301 1 1 4.6652 9.41676 2.29933 0.454839
10 1 1 7.56369 10.9005 1.21914 0.0198974
7459 1 1 8.50006 8.36378 3.89328 1.11617
765 1 1 6.40107 11.8861 3.24357 2.6911
1475 1 1 8.00308 10.086 3.43764 2.04626
672 1 1 13.3818 7.15986 4.80785 0.678143
6896 1 1 10.3551 11.4918 3.40101 5.31658
7538 1 1 8.34615 11.2184 4.04379 0.627094
1193 1 1 13.9388 5.9903 1.88099 2.42592
7185 1 1 14.9603 5.61068 1.63506 2.12577
1906 1 1 12.5486 9.0103 3.06622 3.79728
1426 1 1 12.8412 8.54105 6.56708 0.723746
1478 1 1 15.4193 8.58381 5.64628 0.646037
6561 1 1 17.7407 9.24865 2.9163 0.94832
84 1 1 15.5388 10.0663 2.8154 8.36299
1093 1 1 2.62622 11.3196 0.987259 0.761589
300 1 1 2.24493 12.1051 3.09457 0.714626
877 1 1 16.9589 8.93956 0.817356 1.23609
970 1 1 5.88987 11.4271 4.02095 0.204186
7482 1 1 3.55808 9.75046 2.60057 1.71339
7805 1 1 3.36866 11.8088 2.18584 1.77602
1211 1 1 7.08998 10.5682 3.29823 1.26062
290 1 1 6.01081 12.2725 1.87159 3.53764
7643 1 1 6.67905 7.95605 2.43579 1.21057
691 1 1 7.75525 5.02811 3.67259 1.6178
955 1 1 8.13357 12.7209 0.63511 0.801772
1224 1 1 8.9974 8.79048 0.88179 1.45791
232 1 1 11.2217 11.347 1.77407 2.04097
7983 1 1 15.6834 7.69736 2.41319 0.616435
296 1 1 13.6614 10.3252 2.597 1.0067
610 1 1 12.1018 7.84702 4.00778 0.362398
2017 1 1 14.6272 6.07363 3.24302 2.42163
712 1 1 17.3704 10.0096 1.14044 2.57282
7470 1 1 17.2353 10.4019 2.64989 1.24866
146 1 1 0.684569 9.9807 0.39096 0.11661
2662 1 1 17.0289 12.3351 37.5295 2.43344
1234 1 1 17.9754 12.0672 1.33255 0.966534
7474 1 1 4.66174 12.7543 3.84588 0.0804265
967 1 1 2.6571 10.9226 2.6726 1.60105
7060 1 1 1.46262 11.7595 1.05056 0.764527
369 1 1 3.60803 10.8947 3.17527 0.160047
7249 1 1 1.81375 11.9308 4.73758 0.470245
325 1 1 7.23408 13.432 4.6947 2.32174
773 1 1 3.9455 12.4802 2.62282 1.44077
453 1 1 4.95723 9.22327 6.56593 0.680433
627 1 1 11.011 11.7659 4.08605 0.592424
7004 1 1 11.7151 12.2348 3.44057 1.47845
1103 1 1 12.5114 14.3408 1.95983 0.792939
738 1 1 13.0927 9.84105 3.89409 0.754282
286 1 1 11.3132 12.4537 1.25933 0.298726
574 1 1 13.0361 10.2434 0.916737 2.45356
1107 1 1 10.4483 10.3952 1.63791 0.906287
7512 1 1 14.6973 10.1232 37.0554 1.36669
973 1 1 14.6547 10.0941 1.7325 1.65399
7772 1 1 1.48797 13.8093 2.61931 0.35231
163 1 1 5.36099 11.8202 3.07402 0.766641
1486 1 1 3.90518 15.3883 4.21594 0.98661
7085 1 1 5.45686 14.1949 3.52993 0.277986
584 1 1 5.94496 12.0587 0.901777 0.873628
255 1 1 8.81144 11.7044 1.18685 0.874948
688 1 1 8.52757 14.1005 6.84587 2.81532
1128 1 1 8.18406 15.2118 3.99068 0.114128
7139 1 1 7.35031 17.2843 3.57816 2.97356
1912 1 1 8.39728 12.7785 3.70491 3.20232
1139 1 1 9.01231 18.112 1.38554 3.16558
7545 1 1 12.4908 12.6604 0.917921 0.880161
423 1 1 14.1033 11.4529 1.0729 2.43316
6686 1 1 11.7547 13.5338 1.0799 0.551966
7834 1 1 13.0427 12.5982 4.37211 0.0471194
6824 1 1 13.5663 13.2909 1.68275 1.99405
7040 1 1 11.0583 15.6508 1.55835 1.76563
6599 1 1 16.9771 12.2381 0.927899 0.68065
389 1 1 14.1592 15.5157 2.37143 3.0418
375 1 1 17.2144 14.3557 1.40392 0.620059
7867 1 1 16.8206 12.7419 2.2372 1.97074
1567 1 1 0.0436081 11.7261 36.9502 0.932596
2358 1 1 18.3072 14.9058 3.56199 3.36308
1445 1 1 0.236664 17.4434 4.21648 1.1388
7555 1 1 1.02652 13.6023 0.655919 0.601384
757 1 1 0.9838 15.7293 2.25796 1.12342
1485 1 1 1.93595 16.9381 1.20878 7.79235
815 1 1 7.17095 14.456 0.242083 3.58795
7926 1 1 5.78936 15.7068 0.961861 1.01497
749 1 1 7.47842 15.1137 36.5826 1.5983
6851 1 1 8.42274 15.1818 1.90285 3.14849
872 1 1 8.27648 16.9149 36.9916 4.73254
7700 1 1 6.38507 15.7874 5.21418 0.673502
7489 1 1 9.14196 15.5217 2.91369 0.440591
256 1 1 8.37173 16.1589 3.9524 1.56868
976 1 1 10.622 12.8301 37.0477 0.64275
381 1 1 11.3075 14.0712 3.04677 1.42755
273 1 1 14.1042 17.5782 1.61195 1.83689
7787 1 1 18.4462 14.3618 34.913 1.90754
2367 1 1 18.6136 17.4714 0.67854 1.99454
5999 1 1 18.7601 16.5694 2.17793 0.813112
7887 1 1 -0.00651355 13.9529 2.77035 1.86132
670 1 1 16.4898 17.7509 2.95365 1.05495
7968 1 1 0.057455 15.2516 1.2443 0.47602
1509 1 1 0.171503 15.046 2.57289 0.805215
6459 1 1 4.22775 16.2642 2.60956 1.87414
1446 1 1 6.59906 0.628238 1.50908 0.443962
1328 1 1 5.52275 17.9011 2.12453 1.36861
7613 1 1 5.30604 16.692 1.9212 0.286669
3576 1 1 7.58068 17.8886 0.513559 0.155198
292 1 1 7.30584 14.2836 4.01986 5.76461
1582 1 1 8.88044 17.1463 1.9403 1.19491
814 1 1 9.28103 18.0943 34.9555 1.50461
7620 1 1 8.45998 18.2021 3.32152 1.38109
7230 1 1 10.4382 17.5064 2.38072 2.60386
1505 1 1 9.70181 15.4589 4.14054 2.50287
7149 1 1 12.4776 17.3983 2.63639 0.991797
781 1 1 11.0539 16.7137 3.34281 0.420875
2661 1 1 11.3857 15.0963 2.38809 0.626346
2150 1 1 13.9874 15.5279 36.8341 0.694123
629 1 1 16.4182 14.9986 1.08965 1.89315
1928 1 1 0.175998 18.6082 3.34599 2.07418
2033 1 1 16.2761 18.0947 37.53 0.869747
7188 1 1 18.7465 18.0501 2.22953 0.884482
686 1 1 2.30607 17.7838 2.0963 0.344234
7585 1 1 1.31797 17.9128 4.51069 0.133738
1140 1 1 3.94723 0.758184 2.97071 1.31355
1453 1 1 5.89992 17.2804 5.47684 0.899064
487 1 1 6.40627 14.4758 3.1643 0.835488
7754 1 1 1.02037 14.0988 4.40312 2.9008
605 1 1 7.39033 17.8598 1.46388 4.16395
7996 1 1 6.64947 0.242158 0.426856 0.12368
829 1 1 9.94355 15.2595 2.23144 1.43176
450 1 1 7.84517 17.242 4.56845 0.793291
6027 1 1 12.1206 17.5706 5.6764 0.00328529
7987 1 1 10.3842 17.1864 4.51968 3.77426
6673 1 1 11.103 18.5372 2.79011 0.310061
1785 1 1 10.0653 18.4652 1.94771 1.60634
2106 1 1 13.9362 0.793109 3.14511 1.86165
1110 1 1 12.9201 16.0876 0.844141 0.566506
1200 1 1 12.5763 18.8135 1.17234 1.01782
129 1 1 1.31565 0.971744 0.594564 2.17972
788 1 1 0.0856009 16.9204 36.6658 0.983943
194 1 1 2.48049 18.7278 0.305365 1.29958
310 1 1 0.424533 0.737099 4.34923 2.68608
915 1 1 1.78367 1.56596 3.26288 4.7439
7122 1 1 4.07589 0.196953 3.81864 0.745461
175 1 1 5.518 1.11659 1.9077 1.25858
1367 1 1 0.56659 0.492184 5.25587 0.324931
7123 1 1 4.90544 3.85371 3.98898 1.23492
1331 1 1 4.9782 0.404659 2.92487 1.28768
7762 1 1 5.89701 0.678991 5.44188 0.163693
293 1 1 7.55934 2.03755 5.22065 0.598422
7964 1 1 11.1636 18.7981 4.34634 1.21786
1658 1 1 8.77916 0.16148 4.38615 1.70468
1749 1 1 9.82149 0.469823 2.57138 1.06931
671 1 1 9.65759 18.5792 4.63961 0.8689
1213 1 1 12.4903 1.53027 2.46026 1.63587
1704 1 1 13.3961 18.3797 4.72712 1.39794
180 1 1 15.4084 17.8419 2.74534 0.548901
906 1 1 11.6117 0.351817 3.50502 0.185929
982 1 1 16.1062 0.818366 3.51644 0.932549
427 1 1 0.431153 2.79808 2.88104 0.308565
7914 1 1 17.9716 1.868 4.16657 2.46402
1205 1 1 16.8879 1.61789 4.47397 0.719298
1265 1 1 1.04016 1.45257 3.89781 1.36493
1714 1 1 3.1553 5.39473 1.90982 0.795749
1373 1 1 5.96582 3.90605 6.09143 0.450361
480 1 1 4.74799 17.7928 3.11418 2.63235
656 1 1 6.41092 3.39377 2.05558 2.36471
56 1 1 7.0514 3.05369 3.60342 0.918483
7300 1 1 5.18033 2.42324 4.62441 2.90624
7896 1 1 7.98769 3.90608 5.05524 0.482372
1543 1 1 6.46824 1.6169 3.43433 2.64315
6986 1 1 7.96518 1.64475 0.894068 1.71203
96 1 1 9.27954 2.64633 3.5976 0.687292
1852 1 1 6.66641 2.04347 4.4137 0.0539583
385 1 1 7.26371 3.32477 2.64821 0.64453
94 1 1 8.34467 0.538718 2.49875 0.317235
824 1 1 10.0293 0.83526 1.52395 1.78579
7989 1 1 10.1047 2.90511 2.96906 0.862147
553 1 1 11.9973 1.72041 3.94298 1.36737
100 1 1 12.3708 2.56863 2.8675 1.57049
742 1 1 14.21 3.4023 6.28712 1.71765
946 1 1 13.9407 1.81501 6.32294 0.482963
1413 1 1 16.0758 1.57368 5.55658 1.19682
314 1 1 18.1847 3.39935 2.45309 3.036
874 1 1 0.0231697 2.38643 6.07532 2.531
1279 1 1 2.79029 2.24781 4.14684 0.249406
109 1 1 2.22128 2.63022 2.80718 0.183935
3 1 1 3.81599 4.44109 1.25814 1.17475
1202 1 1 6.21511 4.14016 4.39793 0.919438
527 1 1 5.14469 4.69465 5.8347 0.669422
1376 1 1 6.90504 3.64093 7.36391 0.27968
479 1 1 8.77287 6.42199 7.16436 0.352091
1378 1 1 9.34508 3.00743 5.82562 0.288292
2736 1 1 5.74657 2.88475 6.17 0.867535
3337 1 1 11.3028 4.06662 2.46413 0.372107
7625 1 1 9.93899 5.47725 0.71798 3.34479
1664 1 1 11.9933 4.03445 0.500498 1.82764
685 1 1 13.0669 4.96225 37.134 0.169106
7250 1 1 15.6232 3.77605 4.7535 0.983105
602 1 1 18.3303 5.73007 4.40529 2.49943
7950 1 1 16.8555 0.347436 4.07862 1.07218
1239 1 1 16.2455 3.63648 3.76369 0.771561
155 1 1 1.24041 2.13877 2.46836 2.72935
6152 1 1 2.92291 1.35091 2.29089 1.81358
7366 1 1 1.23778 3.34403 5.58152 1.5599
7841 1 1 18.197 3.66243 0.866903 2.34932
1596 1 1 0.459719 7.48005 2.26544 2.57559
1717 1 1 5.29996 5.2234 2.52007 1.83339
158 1 1 2.07745 7.48948 1.10852 1.85097
1883 1 1 4.27404 6.67752 4.22178 0.81164
580 1 1 5.43949 3.47446 1.88559 2.21897
5739 1 1 7.81921 6.74517 5.40745 2.98828
890 1 1 7.5051 2.87666 4.60484 1.64478
2103 1 1 10.5578 2.05926 3.78745 2.55945
140 1 1 11.8527 6.30781 2.58729 3.66022
281 1 1 11.9895 4.00007 4.47578 1.53424
1262 1 1 12.675 6.734 5.47177 1.54551
446 1 1 13.0676 3.66044 4.62826 0.278881
2075 1 1 13.8304 4.69912 4.26881 3.09986
581 1 1 17.0825 4.4871 3.2671 1.31359
7468 1 1 17.2807 3.34373 3.26722 1.49968
2432 1 1 17.568 3.65753 4.7241 5.55879
1336 1 1 14.1422 4.43061 6.74519 0.956029
148 1 1 18.3006 4.28666 3.09326 0.650888
190 1 1 2.07793 5.50274 1.78334 2.49729
3586 1 1 18.073 4.77405 5.5785 1.40224
7683 1 1 0.822593 6.60403 6.01925 2.7097
238 1 1 4.97285 7.45581 4.63971 1.75638
729 1 1 5.78604 5.01971 6.64684 0.435801
1754 1 1 1.1016 5.64022 4.95587 0.74783
440 1 1 7.58194 7.6611 5.89784 0.777917
2397 1 1 6.72674 5.71345 4.55612 0.0404468
1405 1 1 8.24759 6.71407 2.33524 1.75258
1194 1 1 9.46013 6.65174 2.51415 0.842668
1466 1 1 8.45408 4.23688 6.16712 0.537533
177 1 1 10.0803 3.99451 2.98699 1.78369
575 1 1 11.763 5.79003 4.48435 0.807242
488 1 1 14.2071 8.09015 3.83607 2.28766
1759 1 1 10.5086 5.71287 4.85839 1.70015
6463 1 1 12.9835 9.28729 2.3107 3.86815
591 1 1 15.7597 6.37738 3.27721 3.64288
7273 1 1 17.4803 6.71908 4.99781 1.70346
3565 1 1 16.0641 7.44419 5.20874 1.40712
444 1 1 18.0785 5.77871 1.72599 1.47018
481 1 1 1.93414 8.91399 2.36672 0.680113
1942 1 1 16.7518 9.55659 3.13724 2.04294
1562 1 1 0.38647 5.885 2.42249 1.88212
134 1 1 2.92469 8.08493 3.78667 1.01937
875 1 1 1.45064 4.11266 2.8393 1.14565
983 1 1 4.22566 6.47882 5.53795 1.50234
131 1 1 2.28442 8.61675 4.5928 0.623507
7862 1 1 5.04997 7.44166 6.19336 1.35038
541 1 1 9.83143 8.83791 4.82359 1.89291
1802 1 1 10.3381 9.48792 5.77202 0.653807
557 1 1 9.85516 6.86867 5.18185 2.97843
1069 1 1 12.4963 7.35903 1.80869 0.948519
1781 1 1 9.09622 9.76577 3.83925 1.42886
1422 1 1 14.8224 3.84736 2.90261 0.670245
1833 1 1 13.2249 6.31604 3.7973 2.1846
960 1 1 17.2129 8.25987 2.94392 1.82187
305 1 1 17.4886 8.57485 5.35781 1.1704
1183 1 1 15.8636 3.58831 2.06307 1.06105
1000 1 1 18.1621 9.71594 5.34468 1.01005
1709 1 1 18.2485 7.45376 4.59366 0.103118
2357 1 1 3.51731 12.0577 3.41079 0.637923
2110 1 1 1.11746 9.47979 2.76151 0.595083
1399 1 1 0.723263 7.77481 4.13959 3.18689
1113 1 1 18.5358 9.64624 3.95944 1.74629
7845 1 1 1.31504 12.6087 1.9893 1.04794
114 1 1 2.2933 10.102 3.22554 0.302708
1917 1 1 2.57427 8.18242 2.85444 3.25661
1280 1 1 2.60625 10.1334 0.925928 1.30453
478 1 1 8.29397 10.3505 4.65396 1.08834
1415 1 1 5.89482 9.41422 3.132 0.121134
378 1 1 9.40981 11.3198 4.07963 0.959282
374 1 1 12.0445 11.0174 4.66422 0.81787
7531 1 1 10.9222 10.6736 5.33908 0.966564
1460 1 1 12.1914 8.94127 4.64854 0.156271
641 1 1 14.773 9.98572 6.02221 0.180508
6875 1 1 17.4665 8.31844 1.77409 0.468157
1870 1 1 17.4305 9.85591 3.90517 0.386771
6719 1 1 18.1572 10.6623 4.14089 1.26723
1276 1 1 2.09177 11.3771 5.93489 0.624492
336 1 1 0.415213 10.3454 3.47518 1.24626
916 1 1 4.0381 8.66167 4.55717 1.60039
1863 1 1 3.16787 10.0997 4.20047 0.66126
2311 1 1 4.41632 10.3401 3.78769 1.75986
1728 1 1 2.67431 11.0994 3.61577 0.461125
408 1 1 6.16313 13.0845 4.66803 0.150451
1417 1 1 6.27446 10.9514 2.67325 0.19108
365 1 1 6.84591 12.3125 1.22505 3.53364
1465 1 1 7.81961 7.50645 4.48232 0.971262
1001 1 1 7.43854 9.04425 1.91842 0.614756
1046 1 1 7.2073 9.4672 0.941608 1.07603
277 1 1 11.406 8.6458 3.61248 1.11261
64 1 1 10.3238 13.1219 5.44325 0.452891
241 1 1 9.65569 12.1028 6.40521 3.20109
1017 1 1 11.8273 10.0191 5.74521 2.45672
7573 1 1 10.194 9.75835 4.16016 1.50837
7739 1 1 11.627 7.95532 5.02412 1.04872
433 1 1 12.5182 12.8409 37.308 0.508488
2062 1 1 11.3392 11.9222 5.54671 0.310301
1706 1 1 16.2291 11.5671 5.71614 0.282239
7444 1 1 14.0921 12.0628 2.25746 0.301142
386 1 1 15.0466 11.1069 2.81189 2.87025
1533 1 1 15.5744 9.50497 4.87134 0.106331
683 1 1 15.2921 10.3607 0.177109 2.66985
1965 1 1 13.8166 10.9106 3.8268 0.491984
1349 1 1 15.5556 9.82424 0.969131 1.41703
7350 1 1 2.39383 10.5166 5.2582 1.2209
7927 1 1 3.0891 11.4349 8.10681 0.428632
243 1 1 3.58776 11.1691 4.16265 0.404292
863 1 1 1.73664 10.5276 2.36784 4.57108
1958 1 1 6.4691 14.6399 4.92005 0.149861
344 1 1 6.13499 10.014 4.12271 0.715264
216 1 1 7.98833 11.3169 5.11771 0.973797
1163 1 1 6.86147 12.7632 3.91332 1.42792
699 1 1 7.02045 10.5607 4.46577 2.95955
823 1 1 8.332 12.2098 5.5875 0.152807
1545 1 1 12.1288 12.4803 5.16831 5.29645
1165 1 1 8.60237 12.6312 2.63543 1.4722
7984 1 1 11.0447 10.5254 2.58335 0.926287
6590 1 1 13.0111 11.2605 2.12057 2.30561
6750 1 1 10.9737 11.2397 0.598842 0.6618
1187 1 1 13.1762 13.8193 2.79329 1.2523
1676 1 1 14.0136 13.4859 3.828 3.61029
1087 1 1 16.1961 10.5639 5.2512 2.00416
1351 1 1 17.5679 11.7336 4.51962 2.97866
1528 1 1 0.0208209 12.1483 0.632926 0.896581
1360 1 1 0.594921 11.6258 2.22671 0.00588544
1116 1 1 0.602911 15.2245 3.55441 1.93707
6720 1 1 5.39604 13.0678 5.96513 2.32388
6563 1 1 0.776366 12.0889 3.53857 1.02105
1082 1 1 2.97602 12.6091 4.81589 1.25299
1526 1 1 6.317 15.3859 6.23422 1.46353
7376 1 1 4.4925 11.6528 5.93045 1.81788
1448 1 1 8.29013 13.7247 2.58797 0.283147
1210 1 1 7.72398 14.4626 1.7414 4.16086
6683 1 1 8.98168 13.142 6.5649 1.31097
7464 1 1 8.6835 12.0651 7.19121 2.19321
7990 1 1 10.171 14.5607 5.65915 0.397537
221 1 1 9.16951 10.755 3.32867 1.71072
1590 1 1 16.0671 12.8041 3.51728 5.34936
1147 1 1 10.5127 14.6779 4.34267 1.73418
7993 1 1 16.8715 13.3105 3.07503 0.0128855
818 1 1 16.4208 11.0013 2.26217 0.221042
669 1 1 16.0721 10.9193 1.18531 0.280888
2798 1 1 16.1586 10.766 3.70422 1.98909
259 1 1 0.23992 12.5291 1.55498 1.76467
1971 1 1 18.0511 12.9945 2.36977 1.52123
240 1 1 15.4804 9.33897 3.65409 0.265547
608 1 1 18.3085 0.27926 2.5294 1.40439
126 1 1 17.8528 18.3722 4.38903 3.02556
1282 1 1 1.68275 15.0775 4.78142 3.00474
2755 1 1 3.77918 13.3506 5.36225 0.27531
795 1 1 4.38864 14.4577 4.31869 0.514844
840 1 1 6.58464 13.7971 5.59909 0.176665
834 1 1 5.00277 12.8688 2.83948 0.180685
1337 1 1 6.06778 15.4923 3.77894 0.69664
684 1 1 4.69373 15.7997 37.4147 3.5966
504 1 1 7.10863 15.221 1.37654 0.633344
902 1 1 7.53377 14.6477 2.7241 0.743888
391 1 1 7.49406 13.8482 6.02331 1.11472