ITEM: TIMESTEP
4800
ITEM: NUMBER OF ATOMS
8000
ITEM: BOX BOUNDS pp pp pp
0.0000000000000000e+00 1.8820720577620570e+01
0.0000000000000000e+00 1.8820720577620570e+01
0.0000000000000000e+00 3.7641441155241139e+01
ITEM: ATOMS id mass type x y z v_temp
7088 1 1 18.6208 15.8744 36.4142 0.411125
677 1 1 18.5114 18.494 2.59041 0.590984
6814 1 1 4.44547 0.962008 1.96211 1.10591
2103 1 1 6.40792 17.2483 3.32841 1.32035
1134 1 1 8.82636 2.51986 2.13058 0.65689
6551 1 1 9.25334 0.832427 0.222624 3.07098
1588 1 1 12.3451 4.54024 2.68217 0.666126
6121 1 1 9.50102 17.5423 37.4814 0.844734
94 1 1 11.3656 16.1854 37.0917 2.63229
1044 1 1 12.6815 0.612065 0.154352 0.676847
7796 1 1 11.983 17.3876 0.516716 1.05026
7301 1 1 14.1801 2.10701 2.22577 1.63994
7423 1 1 15.0137 17.6757 2.58818 2.38762
7960 1 1 15.8746 18.649 4.16846 0.282342
1479 1 1 15.0444 0.720772 0.113607 1.12492
2221 1 1 16.9309 2.06714 1.61315 1.05544
5355 1 1 0.598666 6.09718 2.12998 0.406237
859 1 1 2.6266 0.416644 0.71602 2.97066
776 1 1 2.27191 16.3951 0.87266 1.41923
6494 1 1 5.59628 4.3211 0.78469 0.538977
7412 1 1 3.86396 2.15526 1.01896 1.13163
2824 1 1 5.7015 0.0690058 0.543702 0.182274
7604 1 1 6.82798 1.79413 37.3423 1.74784
7653 1 1 4.06263 2.09186 36.8022 0.411548
1266 1 1 5.46437 1.27272 2.51897 1.54115
175 1 1 6.6299 1.06733 0.967989 2.83302
7032 1 1 9.53451 4.46805 36.9582 0.38353
437 1 1 8.3748 0.900095 0.912167 1.22719
1563 1 1 12.1496 1.34968 2.33343 2.45763
7431 1 1 11.3168 0.570664 2.63305 0.204426
1806 1 1 13.284 1.87301 0.410231 0.81492
350 1 1 13.6561 3.295 36.6627 0.772087
828 1 1 13.8472 4.01507 35.839 0.296544
636 1 1 13.8111 2.0188 3.382 1.96409
1183 1 1 16.4912 4.3397 0.271802 0.0433539
877 1 1 14.4729 0.447666 2.66805 5.03252
6845 1 1 16.5783 2.6051 2.50472 3.45335
2202 1 1 0.222399 1.34503 1.55015 0.763727
791 1 1 2.80252 1.53817 4.8985 0.731736
6006 1 1 6.07941 2.3365 0.200756 3.84678
314 1 1 2.28416 6.92501 36.1736 1.14533
406 1 1 3.81114 2.98651 35.8026 0.621138
367 1 1 2.89282 2.7141 36.3204 0.966565
6777 1 1 4.42445 3.67249 0.163115 0.970287
324 1 1 4.32896 2.76617 1.75364 1.74124
454 1 1 11.777 3.29633 36.4103 1.39742
1085 1 1 7.16503 2.15595 1.54989 0.338682
5462 1 1 5.93788 4.39175 1.81502 0.420286
2244 1 1 11.3763 17.9655 37.3448 0.408267
285 1 1 9.69458 2.6585 37.4904 0.859696
7115 1 1 11.4178 6.1694 35.7183 0.376043
7155 1 1 13.0853 5.43386 0.0489116 0.635776
430 1 1 14.2531 1.83162 0.163865 2.16261
7392 1 1 15.6091 2.69575 36.0658 0.637004
7440 1 1 18.5227 5.01226 2.74802 1.10655
7660 1 1 2.76912 6.67409 2.00683 0.598624
190 1 1 2.00787 2.61501 34.5445 1.18499
7346 1 1 1.81561 5.03676 37.3598 1.58076
1562 1 1 2.10059 5.99681 37.0864 0.154237
733 1 1 4.65935 4.92184 0.760022 2.40635
7260 1 1 2.91078 5.0932 37.22 0.531721
7564 1 1 10.7925 3.13687 0.284326 0.520586
7450 1 1 8.49838 4.97401 2.93658 1.1564
973 1 1 10.6927 5.09519 6.04984 0.102174
5741 1 1 10.3823 4.28108 0.456295 3.76263
6949 1 1 13.8578 3.89232 2.37655 1.23116
6997 1 1 14.7827 3.50241 0.790302 0.225369
7544 1 1 17.6155 6.23843 34.4126 1.56322
7273 1 1 0.478621 5.16936 37.1337 4.07223
552 1 1 16.0362 4.9246 2.2901 0.953548
137 1 1 18.61 5.09588 1.08583 2.92667
1020 1 1 2.21026 4.6937 36.4867 0.519276
7594 1 1 18.5733 6.49427 2.75762 0.917442
1037 1 1 2.2687 7.89756 2.07486 0.905785
7965 1 1 0.992036 6.22549 0.776258 0.0917788
1714 1 1 1.05016 6.1585 36.9484 0.415618
762 1 1 1.395 9.39147 0.264989 0.995202
135 1 1 5.53559 4.70413 37.4285 0.127556
7703 1 1 5.62727 6.19935 36.9593 2.267
6441 1 1 8.43905 7.95485 4.22939 0.75084
1296 1 1 8.91984 4.5482 35.9018 0.276227
187 1 1 8.98692 6.06014 1.42448 0.903269
997 1 1 8.73329 7.177 2.28045 1.72173
5812 1 1 11.4995 5.9958 1.70819 0.279131
1784 1 1 12.4349 5.64995 36.8042 0.872472
2197 1 1 13.5977 8.4038 1.14507 1.12298
469 1 1 14.4426 6.93431 0.419799 0.290232
6476 1 1 12.261 5.30102 1.01564 0.225153
7318 1 1 17.8181 5.9917 0.771736 1.39753
6561 1 1 15.9871 5.29007 1.00511 0.624625
7844 1 1 17.7807 5.47018 36.2909 2.23272
205 1 1 3.05789 8.58004 2.22995 0.279481
7570 1 1 1.013 7.9012 37.0956 0.319552
357 1 1 4.0515 8.04011 2.34339 2.76472
750 1 1 3.90331 8.88912 2.87291 0.445059
922 1 1 6.34098 9.29163 2.29778 3.94881
174 1 1 6.13021 7.06126 4.46775 2.17232
7738 1 1 7.0387 9.08776 0.14042 0.202256
1681 1 1 9.45586 10.1201 0.242902 1.49685
1001 1 1 8.48298 9.10687 0.999559 0.269474
7573 1 1 8.23131 7.96843 0.210488 6.70238
6907 1 1 11.4275 6.58545 2.58767 1.74079
7913 1 1 10.9465 8.39369 4.63295 2.10339
7548 1 1 13.2792 7.994 2.16476 0.895356
79 1 1 14.7472 7.04965 37.0582 1.45648
7411 1 1 12.7204 6.30788 36.0447 2.30989
669 1 1 12.4586 5.42896 3.56543 2.89242
6959 1 1 14.9436 8.47369 37.0549 0.169083
7424 1 1 16.642 7.32739 36.3722 0.278742
1401 1 1 17.3479 4.41015 1.09255 2.45461
875 1 1 16.4828 6.63306 37.334 0.247342
6828 1 1 1.41852 6.86338 1.72517 4.77836
1596 1 1 0.753807 8.95978 3.18768 0.255983
6343 1 1 3.05478 8.94765 35.5799 3.75239
6767 1 1 4.10038 9.18701 1.66661 1.48083
7846 1 1 3.18694 10.8222 35.9328 2.02884
86 1 1 4.58517 8.06626 35.8805 0.487372
7144 1 1 6.30075 7.2697 37.3264 3.95896
7513 1 1 5.28237 8.15617 0.189888 2.47171
6380 1 1 6.69538 9.38203 35.3381 1.22662
6235 1 1 6.84613 8.44527 2.64118 1.14887
7002 1 1 8.19935 9.52926 35.7212 3.53759
7643 1 1 9.0197 11.9777 0.868161 1.689
7019 1 1 9.76479 8.97069 0.91744 1.55941
7943 1 1 9.85612 6.11348 0.504044 2.15866
543 1 1 10.8068 5.3677 0.787074 4.42134
5838 1 1 16.6216 10.9648 36.563 2.17204
1120 1 1 12.9061 9.32572 37.1398 0.0115291
600 1 1 15.6681 9.92771 35.3198 1.2341
2072 1 1 16.9831 10.6918 1.17489 4.06304
5857 1 1 17.3837 7.05598 0.916535 0.9614
736 1 1 17.9193 8.38597 37.0956 2.12153
7397 1 1 0.0153629 10.2207 36.6423 4.38356
7800 1 1 16.9526 5.88734 0.22807 2.29372
7581 1 1 1.31149 9.00655 1.66458 0.812848
6599 1 1 2.30665 11.3494 1.9148 1.52739
7567 1 1 2.31707 12.1872 37.1662 1.09262
439 1 1 5.07808 10.1268 1.83698 1.83769
1172 1 1 5.01442 11.1429 36.857 0.0534645
191 1 1 5.16241 11.7405 0.774228 1.65061
7065 1 1 6.91286 10.6845 37.3043 1.12077
236 1 1 5.10616 8.3455 34.9639 1.88498
6933 1 1 5.15142 10.4947 36.1893 0.720791
238 1 1 7.37451 11.0486 3.09207 1.14687
574 1 1 8.51366 10.6013 37.1153 2.2363
6631 1 1 9.97526 12.0682 0.347969 3.37326
7949 1 1 8.69981 10.9845 0.551483 0.715755
3406 1 1 9.83338 10.8842 1.01917 3.03251
7834 1 1 13.6263 12.488 1.34155 1.38686
1584 1 1 12.7345 10.5429 0.457183 1.86401
932 1 1 10.8037 10.2318 1.04014 5.17917
627 1 1 15.5374 9.45814 37.1994 1.29653
1438 1 1 17.6393 8.20973 0.702375 0.530797
6752 1 1 17.3764 9.29122 0.110982 1.75178
991 1 1 1.95338 11.0348 0.881182 3.08176
7555 1 1 18.4802 9.53031 1.28076 1.92038
1793 1 1 16.2511 14.3508 37.5296 1.20442
962 1 1 2.96961 10.7325 0.797239 1.30032
7060 1 1 2.73383 12.2997 3.77234 2.07146
340 1 1 6.94017 12.1129 37.2973 3.12927
662 1 1 4.63029 13.1708 1.2279 2.41549
704 1 1 6.94991 13.8133 0.445918 1.812
7351 1 1 8.24188 12.2937 0.128712 2.41385
2234 1 1 8.4513 14.0692 36.1407 2.89672
6693 1 1 10.5755 12.8288 0.0246616 4.06742
7749 1 1 9.19321 12.3701 37.116 0.532173
2320 1 1 8.87761 13.3633 1.18308 1.74422
6723 1 1 12.1313 11.3197 1.0255 0.178598
7497 1 1 14.1096 10.5454 36.7919 0.93858
1997 1 1 18.554 12.4578 37.1926 1.75973
818 1 1 0.0751519 11.2821 2.16215 2.36648
1399 1 1 0.365087 8.67663 0.225773 2.75661
924 1 1 18.3076 17.2647 0.907147 1.42015
6411 1 1 18.5175 14.2097 2.89683 0.791996
6464 1 1 1.17555 13.3753 0.392787 1.8989
7248 1 1 3.62731 13.472 0.70673 1.25656
7404 1 1 3.48269 15.5461 2.97808 1.18532
7836 1 1 2.46523 13.5343 0.820301 1.74026
7457 1 1 5.83248 13.7729 37.6203 1.45608
7174 1 1 5.65315 16.1597 0.903946 2.16263
163 1 1 6.82408 15.1498 37.3827 0.137676
970 1 1 6.95463 16.7744 37.3979 0.490978
678 1 1 11.5363 14.2638 37.2165 3.58211
64 1 1 9.82119 15.1359 0.867563 3.09113
6399 1 1 11.334 14.6498 1.5907 1.36027
386 1 1 8.99082 12.9545 36.1136 3.13251
6873 1 1 11.3234 13.6813 1.61409 1.45351
830 1 1 11.1966 11.4716 2.58467 2.22618
2106 1 1 12.0673 14.1147 1.03814 1.38826
375 1 1 13.4019 13.6731 36.7502 0.827305
209 1 1 15.1419 11.8608 34.1379 2.17678
5900 1 1 12.2563 13.2731 1.61257 1.582
1749 1 1 14.1262 13.1622 0.36433 2.09639
711 1 1 16.5523 12.6735 37.4753 1.21356
7138 1 1 14.5928 12.9522 35.6416 1.32761
346 1 1 0.156273 12.4444 0.719161 3.59875
918 1 1 -0.00237531 13.7943 0.321067 2.2629
1136 1 1 0.747435 16.481 37.0643 0.661163
6637 1 1 0.54429 15.1217 1.27558 1.4995
7957 1 1 5.08706 11.6753 2.95957 0.923976
642 1 1 4.77714 17.0183 0.142351 1.74185
639 1 1 6.41666 12.8962 2.48356 2.86383
569 1 1 5.92003 14.5944 36.6621 0.543835
6673 1 1 8.70974 15.4172 36.7599 1.77482
1729 1 1 7.98441 13.954 1.40661 0.899991
504 1 1 7.48965 14.9116 1.57991 0.62069
7736 1 1 9.7794 13.1609 1.73333 0.550337
239 1 1 12.0816 12.0067 0.211609 0.901448
472 1 1 12.3302 14.3653 3.41342 1.71153
2373 1 1 13.5841 11.6893 0.0864622 0.453486
1186 1 1 13.5478 0.0659208 37.3327 2.96826
7011 1 1 18.2439 17.6852 37.3743 0.581578
7338 1 1 16.3933 16.701 1.22239 1.18005
296 1 1 16.184 17.914 37.5002 1.52678
7977 1 1 1.25538 17.4125 35.8974 7.70554
7863 1 1 0.958035 16.855 1.8568 0.907804
668 1 1 18.669 15.3253 2.38228 3.04248
1634 1 1 1.71736 0.121521 1.42601 1.15838
7097 1 1 1.40343 16.4433 34.9459 1.0133
332 1 1 4.02606 15.9018 1.21515 0.669925
7300 1 1 3.93712 0.438886 37.1688 1.36374
7297 1 1 7.87739 14.663 0.460461 3.99511
287 1 1 6.75133 15.9511 0.853497 1.68874
414 1 1 7.63849 17.432 36.811 2.40344
5509 1 1 9.72627 17.9085 36.574 1.24539
1196 1 1 12.1303 15.8514 35.1976 6.92417
6228 1 1 10.5767 17.3085 36.2714 2.21874
7568 1 1 15.3677 0.239006 36.5594 0.482376
809 1 1 13.2827 16.3654 37.6212 0.75886
653 1 1 13.1922 18.1679 0.407505 0.325854
6982 1 1 14.7536 17.8591 0.0262542 1.30444
2506 1 1 17.0407 18.5876 37.4753 1.50064
579 1 1 17.5709 14.6839 37.2837 2.92805
273 1 1 14.4303 16.795 0.627155 1.91428
1216 1 1 18.6019 16.9976 1.96574 3.19305
328 1 1 1.11863 17.5887 37.0843 3.78695
647 1 1 1.60713 0.927831 2.04975 0.711352
1469 1 1 4.90486 15.0723 1.50115 4.60491
829 1 1 1.66492 0.985503 0.884312 0.561583
1573 1 1 6.10212 2.42136 1.36299 2.99358
758 1 1 3.46726 16.8504 1.5187 0.592881
6079 1 1 5.11934 0.190083 2.61234 2.02551
7613 1 1 5.38864 17.1416 2.46613 0.238386
6855 1 1 6.89644 1.49174 3.06311 0.978954
895 1 1 6.62633 18.2046 1.1455 1.35528
7452 1 1 10.8493 17.675 0.776967 1.17481
7753 1 1 9.87864 17.8694 1.05915 3.79004
281 1 1 13.6094 0.118233 2.62619 2.53638
500 1 1 13.5459 0.223271 1.47638 0.111952
1413 1 1 14.615 0.117682 0.835752 1.77004
7529 1 1 17.8708 0.887523 3.8591 2.20211
1999 1 1 16.1006 15.8962 35.1838 1.54118
1713 1 1 2.05914 18.3547 2.34956 0.49311
643 1 1 2.57084 0.982949 1.83017 0.768676
1509 1 1 1.39586 17.1043 0.568809 0.470764
2026 1 1 7.7027 15.8367 1.30203 2.67478
1365 1 1 1.18155 1.89467 1.83464 1.45304
104 1 1 3.41982 2.06818 3.45119 1.23421
1750 1 1 6.8761 3.83074 2.40196 0.766363
1348 1 1 2.24269 2.68114 3.27092 1.32674
6581 1 1 8.60873 2.0463 1.07082 0.0507952
6040 1 1 9.74983 2.70787 2.57139 1.51918
1140 1 1 13.1485 1.50477 1.77134 1.03325
7028 1 1 12.8763 2.81049 3.01231 0.832698
7340 1 1 14.588 18.3929 3.24759 4.03638
7185 1 1 14.2945 18.4057 2.04888 4.37924
1339 1 1 14.9886 0.242925 4.07283 0.732397
1973 1 1 16.6236 18.7723 1.33975 2.57034
1041 1 1 14.1314 1.0487 37.0162 2.39426
1511 1 1 18.5688 2.63434 1.72274 0.0936071
1607 1 1 1.27316 3.24343 2.73249 0.348957
3242 1 1 1.15548 1.86162 4.66874 2.01483
508 1 1 17.6683 1.90004 37.3608 0.663747
7679 1 1 17.8836 0.231639 1.95355 2.83733
1198 1 1 0.300975 1.03487 3.05591 3.93347
7718 1 1 0.460643 3.90829 2.91867 0.565267
7773 1 1 3.20904 2.67809 2.46259 0.866677
547 1 1 5.00012 2.03628 1.43659 1.44869
7751 1 1 9.7242 0.139897 2.23099 2.12732
6866 1 1 6.68294 3.37175 3.50759 1.25614
108 1 1 10.1423 3.07208 5.01066 0.459594
6363 1 1 8.62042 3.05379 1.08547 0.737616
1661 1 1 10.614 2.14785 3.41272 1.06821
6659 1 1 12.0227 3.43591 3.66159 0.828091
6241 1 1 9.63335 4.88331 4.18959 0.373856
1007 1 1 12.2519 2.12347 1.39288 2.69263
3932 1 1 15.0383 5.4775 1.85651 0.951673
1928 1 1 16.1705 2.28164 3.87351 1.2868
3225 1 1 13.9789 0.154339 4.34113 1.0279
1591 1 1 14.9283 2.415 4.26796 1.48301
1672 1 1 18.7677 18.3474 0.721562 1.09829
31 1 1 2.10373 2.66942 1.39972 0.250561
2558 1 1 18.5031 4.504 3.88324 1.05714
1045 1 1 2.90697 4.3276 0.359105 1.39465
6026 1 1 5.45777 4.26139 5.91072 1.34332
7785 1 1 3.65672 4.75819 2.10943 0.963549
6083 1 1 6.39883 3.69475 0.688438 0.483001
6605 1 1 4.76577 2.80428 3.23453 1.03211
7625 1 1 7.21244 4.71714 3.08919 0.22764
593 1 1 7.8683 2.34742 3.27849 2.74649
1381 1 1 9.56215 3.36757 36.5138 2.23419
354 1 1 9.87648 2.70338 0.984805 2.9974
7094 1 1 11.581 6.86031 3.96557 3.7087
7719 1 1 9.01636 1.00697 2.3516 1.48598
726 1 1 14.5827 3.13721 1.94505 1.71856
1270 1 1 17.1692 3.38532 3.23144 1.12216
3071 1 1 15.8825 3.4624 2.5435 0.274524
874 1 1 0.649114 5.5573 3.16927 0.631647
7697 1 1 2.32527 3.35903 2.33833 2.15629
6423 1 1 0.398169 3.86954 1.86578 0.627597
982 1 1 1.61919 3.917 3.32046 0.274586
602 1 1 3.9826 6.27076 1.29863 1.04463
1310 1 1 2.16745 6.17624 3.26565 2.09521
1717 1 1 3.29731 3.54308 1.33789 1.78342
1279 1 1 4.31683 2.68355 0.293966 0.567955
7879 1 1 3.01115 6.27568 4.17498 0.565095
7612 1 1 6.24584 4.2513 3.2144 0.907964
1273 1 1 5.9478 5.11228 2.58835 0.323837
6424 1 1 4.62685 4.5796 2.81567 0.616477
1237 1 1 10.144 3.63033 1.77865 2.49403
604 1 1 11.5617 4.03112 2.12253 1.80339
7466 1 1 13.4066 4.5703 3.66559 0.54399
742 1 1 15.8826 6.16153 2.24811 2.76905
7468 1 1 16.2323 3.81824 1.16834 1.15003
126 1 1 16.2955 2.92081 0.594291 0.88439
1539 1 1 15.3754 4.20558 0.715001 0.912351
1648 1 1 15.3543 5.56699 3.3638 3.62916
7633 1 1 16.7207 5.9593 3.96373 1.40102
6640 1 1 0.0554389 5.40557 4.16423 1.03831
1715 1 1 1.96766 5.89618 0.987353 4.84835
966 1 1 0.489727 7.66488 2.18447 2.1786
7944 1 1 1.48018 7.97218 1.25559 0.504005
6987 1 1 3.15199 6.71961 1.00649 1.80203
2559 1 1 4.97969 9.54444 4.97994 4.52348
6815 1 1 3.83106 5.70748 0.331811 3.49326
615 1 1 4.61826 6.625 3.26993 0.565619
2608 1 1 6.89816 5.56595 3.18302 2.63156
7472 1 1 6.67129 5.57863 1.50742 1.90644
7482 1 1 9.74523 4.81884 3.03573 1.32539
1224 1 1 12.8638 6.3496 4.29863 2.05878
1790 1 1 14.6982 4.79171 4.31249 4.82942
277 1 1 8.64291 3.66279 2.03171 0.875335
6497 1 1 7.61191 7.36169 0.928617 4.3659
6044 1 1 14.5996 3.5077 3.40853 3.76307
1537 1 1 14.6563 6.30018 2.95734 0.0985045
486 1 1 10.7729 7.42897 0.922844 0.794868
374 1 1 13.6497 3.82428 0.63791 0.624109
1377 1 1 13.9658 5.83916 0.958574 1.54979
223 1 1 12.8949 6.2964 1.79427 3.00773
651 1 1 15.1813 6.7558 1.46838 2.12987
235 1 1 16.8509 5.8069 1.71379 0.287683
573 1 1 17.857 7.20739 3.64201 2.05849
7358 1 1 1.82364 7.24665 3.63374 0.403507
5817 1 1 3.90639 10.3496 4.16039 0.576506
158 1 1 7.71342 9.3305 4.25836 1.28706
842 1 1 5.37737 7.31637 3.70725 1.55678
1751 1 1 7.73965 7.26626 2.88654 0.313151
6253 1 1 9.9394 7.02443 3.29467 0.455004
8000 1 1 7.78337 3.47783 1.41866 1.19458
1069 1 1 6.88816 9.72439 1.11273 2.17892
1217 1 1 8.05882 10.1544 0.818013 0.0306422
2054 1 1 11.6902 9.55955 1.94152 2.2836
7644 1 1 9.49736 3.59126 3.52477 0.234005
21 1 1 11.1013 8.49528 2.79431 2.02196
675 1 1 13.8426 5.37757 3.69666 2.567
1193 1 1 14.7389 7.99493 1.17488 1.20497
498 1 1 14.8951 8.79707 2.49982 0.8083
140 1 1 13.7639 9.9105 0.995392 2.35048
550 1 1 15.8117 8.70342 1.27242 3.24285
2587 1 1 16.5073 8.98481 37.0092 0.462162
622 1 1 15.4738 7.63425 3.33647 1.14055
645 1 1 18.6606 7.8067 0.113421 0.252488
6675 1 1 16.6877 8.32299 2.26117 0.351684
7966 1 1 0.0687181 9.3329 3.91382 1.06035
1290 1 1 3.42875 10.2608 2.1343 1.68823
7803 1 1 5.00141 8.34284 1.47621 1.25075
7731 1 1 5.83809 8.3342 2.8374 3.31428
7841 1 1 5.43257 12.4335 1.73025 0.549852
6578 1 1 6.77273 10.2912 2.06233 2.48797
1264 1 1 7.93676 9.74085 37.404 0.386833
6665 1 1 3.88406 10.1213 3.02034 0.867868
7721 1 1 7.7649 10.548 1.80684 0.848492
568 1 1 8.63352 8.24184 1.68732 0.353173
610 1 1 7.82977 7.16499 4.14385 0.714915
955 1 1 12.4121 8.51463 4.17624 1.68545
738 1 1 13.1135 9.32865 4.4814 1.49164
6686 1 1 14.0685 10.0989 0.0619585 3.61724
7634 1 1 10.7879 10.6206 3.29164 0.309061
7795 1 1 18.7031 12.4651 36.1037 1.65964
38 1 1 15.7389 10.8399 2.09856 0.269745
423 1 1 15.8598 9.57875 2.21645 1.76851
7432 1 1 15.1756 9.86553 1.52501 0.0648653
1360 1 1 0.0404792 8.01754 3.58455 0.487679
3472 1 1 0.12591 12.2628 2.82049 0.354587
1677 1 1 0.135656 8.38655 1.38791 0.963756
663 1 1 17.4392 9.54356 2.03213 3.07517
7851 1 1 1.98991 12.8517 2.1929 1.25442
2638 1 1 1.63436 12.1252 3.49361 0.429718
1917 1 1 4.07301 12.7386 5.46328 0.401969
1318 1 1 3.67254 14.4988 2.71399 0.637882
452 1 1 4.17663 11.0765 4.76051 1.02454
2357 1 1 6.66233 6.86573 1.49254 3.72442
1863 1 1 7.32381 13.3864 36.8452 2.06878
630 1 1 7.91034 12.4356 1.78418 1.25031
1968 1 1 8.61017 10.796 2.44257 2.82763
1504 1 1 11.5813 7.88436 3.65163 3.51397
2150 1 1 13.5258 6.96262 2.80133 0.797636
708 1 1 16.5376 9.75765 1.44206 1.1206
201 1 1 11.9569 9.16872 2.97273 6.82064
969 1 1 17.6965 10.7265 3.18293 0.103601
1143 1 1 17.3414 11.5865 0.377746 0.633933
7128 1 1 2.11224 13.3965 3.71902 0.537198
300 1 1 3.02634 10.1443 37.2062 0.370053
7729 1 1 0.765932 14.7322 2.95912 1.15231
1727 1 1 5.6963 13.4795 3.01946 1.32906
133 1 1 4.70603 11.6502 1.81153 1.19748
1528 1 1 7.40799 12.3252 2.78213 2.18164
945 1 1 5.85781 10.9842 2.05657 0.713505
1210 1 1 8.1406 11.4451 1.19772 0.200613
6584 1 1 7.81532 12.5342 3.68934 1.6631
342 1 1 9.11465 14.3326 0.815521 0.906141
1385 1 1 11.2215 11.0572 1.61866 0.224868
433 1 1 10.9973 11.3983 0.303153 2.39555
6939 1 1 11.3934 12.6445 0.999438 2.60656
778 1 1 10.9778 8.46087 1.55809 0.76932
6567 1 1 14.5502 11.1857 4.01752 0.165627
7893 1 1 12.5346 10.8059 2.89677 1.2333
596 1 1 15.7654 11.2781 3.75536 0.489839
1189 1 1 16.3929 12.0967 0.621045 0.943617
7089 1 1 16.0579 12.4275 1.58841 2.72129
1836 1 1 17.2657 11.617 1.67432 0.192416
1280 1 1 0.515736 9.8628 2.83025 0.879174
259 1 1 0.363264 13.0476 1.96606 0.962753
7047 1 1 2.0578 13.2986 37.4383 0.394805
234 1 1 3.87613 12.348 1.34508 2.74664
1448 1 1 18.0732 12.1132 3.44251 1.20034
7961 1 1 6.55474 13.0778 1.26687 0.690843
6379 1 1 5.30026 14.806 2.6891 1.57941
299 1 1 5.75201 13.7098 1.50475 3.26361
481 1 1 6.48689 14.1827 2.90171 1.91119
7678 1 1 8.71689 12.9675 2.24113 0.702795
7035 1 1 9.12043 12.8733 4.42476 1.50462
769 1 1 10.5181 12.5085 4.60315 4.20916
7266 1 1 11.6185 10.499 2.47474 1.19756
7856 1 1 12.2135 12.2309 1.80099 4.42274
338 1 1 14.3138 13.2115 2.40522 0.475967
1617 1 1 13.0743 11.6227 1.58789 1.09965
1017 1 1 15.4959 11.4123 1.16411 4.14008
629 1 1 15.5957 14.6636 2.44104 0.165895
7999 1 1 17.8548 13.5399 4.76982 0.449815
255 1 1 16.3417 13.3886 0.613719 0.678871
2974 1 1 16.0706 15.9367 2.19932 0.54868
6833 1 1 17.6732 13.5348 2.53357 2.25652
1042 1 1 18.1274 16.0908 0.486933 2.42611
7772 1 1 1.45169 15.3261 3.4783 0.907783
1340 1 1 2.6028 17.234 3.7285 2.21486
6459 1 1 17.6749 17.8048 2.01402 1.07542
1676 1 1 1.57895 14.9678 1.88572 3.11006
4804 1 1 0.95817 14.041 2.35063 0.122452
1651 1 1 5.75678 14.8139 3.98537 1.8109
7405 1 1 8.97336 14.8313 1.68916 0.952974
1416 1 1 9.50426 14.9493 37.2314 0.826759
6321 1 1 10.3761 16.8631 1.53777 1.11219
815 1 1 7.6526 14.8578 2.82277 0.736392
2347 1 1 12.348 13.0101 2.98055 2.93718
2046 1 1 13.0251 13.7882 2.3128 1.71387
7950 1 1 14.0283 16.3257 3.48933 1.6096
1077 1 1 13.2399 15.4257 3.426 1.01311
89 1 1 9.65966 16.6922 0.498163 0.903025
7444 1 1 13.6377 14.0281 4.74915 0.330074
1269 1 1 17.1415 17.5033 0.639881 1.55667
1110 1 1 13.5559 13.141 3.30858 2.84436
336 1 1 13.5217 14.5558 2.85579 0.386018
1614 1 1 14.7077 14.2687 1.67957 0.736083
1170 1 1 15.434 13.4721 1.30761 1.9238
1367 1 1 17.154 16.2451 1.79839 0.828462
1984 1 1 18.3709 15.7979 3.23188 1.669
1652 1 1 0.468799 17.3176 2.75422 0.0291298
5605 1 1 2.68057 14.9978 3.70133 1.63255
157 1 1 3.55348 14.8384 4.30957 1.08053
549 1 1 0.379286 17.7974 1.41331 1.87126
1128 1 1 4.58627 14.5787 5.51469 1.36301
3499 1 1 2.24345 17.3988 35.4461 0.945436
6280 1 1 6.32765 14.5259 1.88268 3.04806
687 1 1 8.54932 14.3235 2.50738 1.25029
7303 1 1 5.7299 16.2867 4.3905 0.0767178
6688 1 1 7.93392 17.3054 2.38692 1.63518
898 1 1 10.2397 14.1724 2.86998 3.67411
1453 1 1 8.50139 17.5247 35.2355 1.83428
6582 1 1 11.3385 17.5107 1.79701 1.0703
343 1 1 13.2242 17.4638 1.56994 7.89443
990 1 1 14.3725 16.9632 2.83638 1.1764
1139 1 1 14.5602 15.2974 1.92877 2.71774
1604 1 1 15.7873 14.1776 4.25696 1.83669
1070 1 1 15.2857 15.7585 2.78951 0.390147
7826 1 1 18.5515 0.504057 0.553006 2.19591
7847 1 1 17.411 16.9072 2.85561 2.25368
7951 1 1 4.43076 1.47255 2.97015 0.840212
18 1 1 17.5596 0.0513276 2.93808 0.809052
7454 1 1 2.32617 15.8749 1.94101 1.33917
531 1 1 3.45738 0.0732808 2.17394 1.31901
1147 1 1 6.5376 16.5534 2.14948 2.59453
1466 1 1 6.93661 17.9188 4.24467 4.14895
490 1 1 6.82612 2.33396 2.43171 2.43774
32 1 1 8.65742 17.4258 0.458496 0.367311
62 1 1 11.1043 14.9551 2.66357 0.489271
961 1 1 10.7544 18.6723 1.37275 2.86368
7821 1 1 9.08182 17.4705 5.15725 0.957823
55 1 1 12.153 15.5349 2.94221 0.534162
1616 1 1 10.7175 16.8744 3.83938 0.462269
505 1 1 11.0825 17.0638 37.4937 5.37805
2348 1 1 14.5993 17.1736 1.80497 1.30559
409 1 1 13.439 1.03392 0.804421 1.26361
6824 1 1 15.8686 17.2834 5.92407 1.93879
670 1 1 17.612 2.55951 2.69514 0.558607
6430 1 1 18.6815 18.1999 36.4151 2.65369
7434 1 1 16.4151 0.750037 4.5996 3.30084
910 1 1 18.6089 3.66972 4.7404 0.267325
7947 1 1 1.59495 2.08636 3.76058 4.00391
7451 1 1 17.2913 1.98758 4.51763 0.464293
1902 1 1 2.37105 1.20691 3.93698 1.96289
2365 1 1 7.92525 0.535979 3.32813 1.32678
656 1 1 5.19597 1.70157 4.20014 1.59467
902 1 1 4.37323 2.04663 4.97695 2.68276
7818 1 1 11.3721 0.269599 4.00611 0.729032
1781 1 1 9.35838 18.0923 2.02262 4.0944
676 1 1 9.53991 14.5228 3.56109 0.621567
2204 1 1 12.6258 0.308618 2.13327 2.33707
2208 1 1 11.9832 18.0534 6.59189 0.579874
164 1 1 11.9969 2.34335 3.14661 0.585717
147 1 1 12.3706 18.1442 1.7553 3.70233
1473 1 1 14.2808 17.4824 3.69769 2.66857
7669 1 1 14.4676 0.990662 3.70871 4.43789
807 1 1 15.3137 18.7549 4.98016 3.98816
7830 1 1 14.984 1.25067 1.14375 3.56732
881 1 1 16.4588 18.2219 5.613 0.225526
2134 1 1 0.519088 18.2981 4.60915 0.349309
1909 1 1 0.709804 0.715689 5.68651 0.0539134
2066 1 1 18.1662 2.68303 4.73528 0.311752
7188 1 1 2.33465 3.84042 4.20404 1.17173
1654 1 1 0.387436 18.7585 1.69086 2.74168
686 1 1 1.47376 5.15034 3.89282 0.822397
96 1 1 3.07551 3.20762 4.51806 0.894257
1322 1 1 3.60705 1.87407 2.08184 0.617857
148 1 1 1.87713 4.06968 7.65473 3.81385
729 1 1 3.2747 3.71946 3.38832 2.41974
6922 1 1 9.89242 1.13288 3.69589 0.151072
1543 1 1 9.07659 0.946733 4.25319 0.6513
7934 1 1 5.65889 3.27816 3.4066 0.804194
544 1 1 8.53978 0.326158 36.6987 0.454778
6942 1 1 7.41368 17.9998 5.57726 1.2261
61 1 1 8.33313 1.64336 3.81271 2.97865
1291 1 1 11.5756 0.779086 5.34804 1.59191
822 1 1 13.2829 16.9007 3.08583 0.665855
479 1 1 11.6137 4.41588 3.42906 0.187998
1239 1 1 13.0422 3.85307 5.20554 1.96816
149 1 1 18.12 2.80774 3.55304 0.279349
772 1 1 18.5369 1.06191 5.87551 2.35406
1826 1 1 13.0684 5.09713 5.84974 2.95204
519 1 1 15.543 1.3771 3.88719 2.1883
914 1 1 16.4728 4.96475 4.0205 0.0209783
1354 1 1 16.2399 4.21358 3.35367 0.711602
965 1 1 17.1566 2.43267 5.44562 3.79196
7887 1 1 0.967869 4.66773 1.28377 0.280435
845 1 1 0.675595 3.70393 5.39178 0.174551
1738 1 1 2.54989 2.83465 5.35989 1.39666
109 1 1 2.03224 8.48345 3.11022 0.391126
692 1 1 3.98166 5.41072 5.56234 0.54507
7366 1 1 3.54074 4.27707 4.48308 2.30474
7215 1 1 5.63843 3.38971 2.1558 0.504939
7861 1 1 6.97229 0.88215 4.08494 1.93277
125 1 1 8.09982 3.60716 3.08974 3.79926
5799 1 1 11.3721 2.01426 2.27485 1.58081
1302 1 1 10.6314 3.88935 5.2487 0.678467
2191 1 1 11.9925 5.39298 5.63973 0.466348
7322 1 1 11.8041 2.42251 4.36563 1.34494
7532 1 1 13.7011 0.858102 6.23598 0.461209
98 1 1 11.4257 4.03822 4.51745 1.9778
1450 1 1 15.7315 3.14682 4.51627 0.269216
7758 1 1 15.6465 3.15671 6.44825 2.90086
588 1 1 15.7308 3.15252 3.53794 0.812473
2793 1 1 15.2609 4.31169 3.17515 1.03732
1336 1 1 16.0622 3.97418 5.54313 0.648513
7595 1 1 18.2547 3.53554 2.2153 6.85569
7202 1 1 16.0286 4.28851 4.56652 1.1967
115 1 1 16.4801 2.51925 4.83577 2.9132
774 1 1 0.278177 8.86512 5.38103 6.3045
7791 1 1 1.37369 6.55447 4.40622 2.36721
2033 1 1 3.82127 5.5367 4.60817 0.878167
2044 1 1 2.89594 4.92811 3.8345 0.422855
799 1 1 4.34329 8.47562 4.43258 2.14311
489 1 1 3.47156 4.9227 1.07617 0.781187
188 1 1 6.89837 6.7333 3.42247 2.96434
580 1 1 9.29281 4.94302 5.24797 0.433927
7251 1 1 8.75547 6.72928 6.48185 0.220452
1850 1 1 8.38793 4.54093 4.82762 0.29565
6566 1 1 11.2662 3.08634 5.31764 1.64417
5747 1 1 7.61436 4.66182 1.93235 0.572565
6996 1 1 8.83249 2.47838 4.64985 3.88718
1025 1 1 11.1913 6.14801 5.79728 0.685156
1585 1 1 11.6309 4.28344 0.758309 1.07828
6470 1 1 13.8913 5.08562 1.64461 0.714739
7782 1 1 13.514 5.42801 4.88662 1.51272
2139 1 1 14.0971 4.9065 2.61279 0.932375
1422 1 1 14.8891 8.0453 4.14062 1.53729
1213 1 1 15.8242 5.92806 4.43125 1.55184
7579 1 1 14.1394 8.35096 3.07008 1.78707
6719 1 1 16.6346 5.87174 2.97615 1.93198
7659 1 1 18.4049 7.95312 4.77271 0.310835
383 1 1 0.6831 4.02795 4.24405 1.31015
72 1 1 0.384663 6.76313 3.71984 1.86753
913 1 1 18.0714 8.99646 4.81441 3.67997
608 1 1 3.91019 6.02808 2.58804 2.55492
6159 1 1 16.5498 8.84701 4.37956 5.48177
509 1 1 4.57586 3.54394 1.37717 0.431169
2917 1 1 4.05997 7.60073 3.60083 0.464485
7601 1 1 4.61072 6.68394 4.41537 1.18539
3 1 1 3.32116 6.63279 6.45104 3.33023
1002 1 1 4.43579 5.38996 3.46802 2.43205
217 1 1 7.80992 6.59648 5.98335 0.372682
6477 1 1 8.84727 6.6554 3.25331 1.07284
985 1 1 6.99065 4.65642 4.83712 2.98673
7387 1 1 10.5364 5.95707 3.55118 1.1093
7683 1 1 8.10112 5.76195 2.2991 2.08141
7685 1 1 7.83203 5.24275 4.13528 4.76666
2855 1 1 11.755 10.2752 4.72308 0.352933
6619 1 1 12.2416 8.55434 1.6591 4.61551
7850 1 1 9.72693 6.44142 6.3472 1.09561
7725 1 1 12.8231 5.92084 6.74397 1.09323
1203 1 1 16.3771 6.81661 3.36627 1.99572
102 1 1 17.2637 7.35854 2.04819 0.735944
538 1 1 0.637151 5.96063 5.14808 0.56781
1757 1 1 18.2057 7.88639 1.98115 2.43001
802 1 1 1.71634 9.61704 3.43793 1.06137
926 1 1 18.5113 6.25976 4.74081 3.29172
1275 1 1 1.52448 8.65901 4.07518 2.99642
7326 1 1 3.13549 7.7283 7.91265 1.3382
7242 1 1 2.90802 6.82073 3.02632 0.449405
153 1 1 6.05877 8.09515 4.93008 1.25524
1547 1 1 6.59571 7.17145 2.59843 3.77412
6971 1 1 5.22055 7.54157 2.0675 7.02671
1475 1 1 10.3934 6.18192 2.54892 1.69337
408 1 1 8.42649 6.18431 4.37831 3.2069
7335 1 1 9.35523 9.6216 2.88008 1.12765
1809 1 1 11.7195 9.365 4.03133 3.49139
557 1 1 12.7063 6.07037 5.46324 0.238644
2798 1 1 17.6196 6.02913 3.26281 0.679455
2151 1 1 15.2433 6.04768 0.735038 3.17118
1079 1 1 1.19297 10.5831 3.25818 1.40232
1728 1 1 3.47988 11.7162 2.75806 0.763915
634 1 1 1.34111 10.039 5.05557 0.893525
1005 1 1 2.93743 9.9267 3.44062 0.156116
715 1 1 7.46556 9.37981 2.18937 1.55466
440 1 1 5.92048 8.79147 4.22315 4.37888
345 1 1 6.90387 8.02804 3.65297 3.234
154 1 1 7.83057 8.49745 3.1753 2.77463
1194 1 1 8.98609 8.44725 5.63708 2.87093
1295 1 1 9.27481 9.74521 1.49414 0.431202
825 1 1 10.9254 9.58052 5.8061 1.24361
1833 1 1 10.5695 9.71976 4.20237 0.518525
572 1 1 13.7017 12.0269 3.93023 0.565526
7739 1 1 12.5358 9.83899 3.49055 2.01376
1802 1 1 14.3224 11.5087 1.28494 1.00624
7085 1 1 14.8695 9.08819 0.724845 1.5506
790 1 1 17.7208 8.84299 2.7763 1.26037
667 1 1 16.5911 8.00976 3.39985 1.07431
1709 1 1 18.6794 11.2122 3.31925 1.7136
3565 1 1 0.185311 11.8075 4.81812 2.37389
1287 1 1 1.72702 12.1088 6.29384 0.463421
1349 1 1 5.06809 8.97653 2.29298 1.93441
6563 1 1 6.18946 11.9855 1.21742 0.277545
7130 1 1 4.99803 12.337 6.52089 2.21699
6196 1 1 5.53362 8.75 5.78574 0.0777831
146 1 1 6.27355 10.8885 3.3523 0.35965
840 1 1 5.05612 9.88838 3.65032 0.835801
5697 1 1 5.40089 10.6352 0.444699 0.436838
529 1 1 7.17238 7.70744 1.92219 1.34142
95 1 1 5.74512 10.028 2.7239 0.794918
7459 1 1 7.27147 10.8129 0.911103 0.566144
823 1 1 9.06465 10.5945 3.50292 1.82671
487 1 1 9.17673 11.9155 2.08441 0.825867
7139 1 1 8.1126 9.87928 3.26814 1.60557
1940 1 1 9.41595 11.9487 7.43218 2.94128
1487 1 1 8.64744 10.3578 4.55103 0.997434
416 1 1 12.4891 11.018 4.4814 1.2782
1199 1 1 13.8162 8.48625 5.00791 1.90857
7156 1 1 12.7819 11.7052 5.10188 2.86136
7004 1 1 16.5082 11.3886 4.41759 0.173357
1426 1 1 18.2238 9.71334 6.89878 1.05923
1000 1 1 0.841898 11.5196 3.22434 1.13344
2621 1 1 17.9339 11.2941 5.08363 0.140017
6762 1 1 1.04272 12.2407 2.03926 6.25139
2329 1 1 5.0984 13.5191 5.33458 0.232562
7717 1 1 2.92742 11.8441 5.88437 0.76744
7755 1 1 6.47925 16.1507 3.29333 0.145915
6842 1 1 4.20964 12.8662 2.28536 1.08797
699 1 1 5.05168 10.4915 4.50323 6.066
2732 1 1 8.66826 13.2002 3.58231 2.94322
7704 1 1 8.29572 11.5763 3.90555 2.3058
1920 1 1 10.8695 10.7516 5.17555 0.688334
640 1 1 10.0061 10.6345 2.18346 0.681341
7531 1 1 11.0891 11.6254 4.74868 0.420262
221 1 1 12.8483 9.0989 2.23041 2.45709
1100 1 1 13.5651 11.9309 2.83242 0.0854663
7798 1 1 15.2888 10.8454 5.51763 0.439297
7040 1 1 12.8915 12.8888 0.683476 2.6458
1493 1 1 15.9496 11.9079 2.73831 0.260296
1184 1 1 16.3213 10.5969 5.13474 1.52143
888 1 1 16.4784 13.64 3.6457 1.17603
1024 1 1 0.953484 11.1589 4.30354 1.43444
986 1 1 0.529739 11.8345 5.96659 0.820824
2277 1 1 0.281251 13.2778 5.90522 0.373009
204 1 1 1.48339 16.0637 2.41855 0.996363
1233 1 1 17.0644 12.095 3.61581 0.709052
203 1 1 0.276017 14.8352 4.80266 0.373307
7621 1 1 4.40626 14.8555 3.75031 1.74865
178 1 1 4.6952 14.1229 2.2057 1.39271
7811 1 1 5.71772 12.6614 0.42597 6.92645
584 1 1 6.7305 11.9372 2.04675 0.234039
245 1 1 7.08243 14.0538 4.34912 2.38331
1505 1 1 5.94055 12.5731 5.69031 0.450602
1853 1 1 6.93768 11.5591 4.36273 2.6384
7489 1 1 9.88255 13.5047 0.624992 4.07698
906 1 1 9.35609 13.665 2.81452 1.19527
2032 1 1 11.0754 12.9847 2.51135 0.310236
2126 1 1 14.3002 11.2154 2.40494 4.26349
6946 1 1 12.0158 11.7214 3.52441 1.23262