ITEM: TIMESTEP
1100
ITEM: NUMBER OF ATOMS
8000
ITEM: BOX BOUNDS pp pp pp
0.0000000000000000e+00 1.8820720577620570e+01
0.0000000000000000e+00 1.8820720577620570e+01
0.0000000000000000e+00 3.7641441155241139e+01
ITEM: ATOMS id mass type x y z v_temp
129 1 1 1.95055 0.7742 36.6629 0.234673
7265 1 1 2.54681 1.10919 0.870386 1.74022
692 1 1 3.4149 0.0595086 0.419072 2.25599
7267 1 1 5.18866 1.20286 0.377461 0.039707
7818 1 1 4.45408 0.294871 1.73979 1.28099
7996 1 1 6.2529 18.4284 0.441882 1.22031
7535 1 1 9.03 1.71356 0.823511 2.53285
1196 1 1 10.0994 0.999281 0.796898 2.98277
1200 1 1 12.7121 0.165443 1.33076 0.207399
726 1 1 11.45 0.94665 0.869564 1.08035
6814 1 1 16.2767 0.152862 1.93528 1.50229
881 1 1 14.3627 0.749627 0.741352 0.730313
1269 1 1 16.7656 1.13618 0.310296 0.368218
511 1 1 15.985 1.76249 2.02375 4.36479
576 1 1 17.5156 2.07351 37.5612 3.36432
351 1 1 0.973192 0.84713 37.6159 4.12236
7647 1 1 18.387 18.7843 37.4191 0.649173
6648 1 1 1.91784 3.63423 0.703343 1.55604
774 1 1 2.66537 2.98741 1.87438 2.22345
7226 1 1 3.95162 1.52656 0.664378 2.50149
547 1 1 4.31001 2.10673 1.39554 3.3921
6076 1 1 6.70593 2.43849 1.76427 0.393845
7503 1 1 5.37519 2.91718 0.25299 0.568013
7982 1 1 7.88319 2.07045 2.18369 2.29863
6986 1 1 7.80613 1.14158 37.6351 1.1957
6855 1 1 9.68511 2.54761 0.128081 2.86398
7032 1 1 10.4024 2.4097 1.48975 0.819197
1806 1 1 11.8223 3.16376 0.96515 2.21392
593 1 1 11.0843 1.80284 0.331408 2.7727
1333 1 1 12.4265 1.86549 37.4469 0.87729
7669 1 1 13.2996 1.01918 1.23272 3.40292
1315 1 1 15.8235 1.38793 0.430712 1.55018
914 1 1 14.7887 2.90891 1.67608 1.17627
7301 1 1 15.4099 2.73986 0.253416 1.76788
1473 1 1 15.8115 2.92795 1.16365 2.02394
6868 1 1 16.4285 2.10216 37.6403 0.293701
18 1 1 18.697 2.22164 0.262491 0.174686
7440 1 1 17.0311 1.41751 1.26492 0.132513
47 1 1 0.103548 3.37172 1.71529 2.16326
447 1 1 0.638257 3.85479 37.0074 3.97913
508 1 1 2.39628 2.3285 0.75817 0.533367
6006 1 1 2.78104 4.2245 0.800958 1.67486
7660 1 1 4.29251 4.15836 0.793035 1.67784
7718 1 1 4.29315 2.86479 0.243246 3.34879
1309 1 1 6.35775 3.7399 1.13523 2.30619
7332 1 1 8.49411 3.55383 1.06202 0.0745987
7653 1 1 7.32814 3.49801 1.11785 0.704301
6477 1 1 7.96079 3.07085 0.336183 0.284914
7666 1 1 9.81768 3.93219 0.386503 3.57197
73 1 1 12.4303 3.01275 37.2796 0.992713
1664 1 1 12.3835 3.89702 0.177213 0.39056
7911 1 1 14.226 3.09369 0.791948 1.81312
271 1 1 13.4353 4.44829 1.23027 0.489541
515 1 1 13.8276 2.02703 0.766147 0.941401
966 1 1 16.5355 3.57833 0.743774 6.27055
7841 1 1 18.0746 4.20149 1.17261 0.238601
366 1 1 0.764509 5.98339 0.313088 1.89339
7937 1 1 0.629587 4.41762 0.98701 0.16952
7507 1 1 1.89416 4.8927 0.638271 2.82512
3 1 1 3.83693 5.0185 1.72389 2.37469
7879 1 1 4.83547 5.1502 0.575539 0.972689
429 1 1 5.96521 6.6326 0.320816 1.12198
1850 1 1 5.85988 4.63774 0.677683 0.223492
529 1 1 7.69896 4.67875 0.905531 0.411943
7644 1 1 8.31306 5.55763 1.18799 3.18165
6942 1 1 7.52766 6.04176 0.812948 1.038
7625 1 1 10.3953 5.86236 1.27027 1.18163
6703 1 1 11.5329 4.624 1.07893 0.867879
7466 1 1 11.5987 4.63389 37.6191 1.39368
1329 1 1 12.7819 5.43584 0.286073 1.62687
6872 1 1 15.0858 4.20452 0.674602 1.48994
7432 1 1 17.2204 4.76113 1.16036 0.89037
7086 1 1 18.4969 4.8061 0.416329 0.558692
7641 1 1 0.545463 7.00198 0.702373 0.748724
6848 1 1 1.80006 6.3679 0.945116 2.0645
354 1 1 2.16854 7.14506 1.38301 0.719273
1045 1 1 3.15649 5.20174 0.816861 2.53618
945 1 1 6.89323 6.76528 0.288418 0.299058
7663 1 1 7.22369 6.71411 1.7239 0.321215
193 1 1 8.31722 6.91609 0.753659 3.03286
796 1 1 8.16392 6.44081 1.9002 1.02169
543 1 1 9.18106 6.797 1.79648 0.266265
6657 1 1 9.36153 5.88123 37.0374 1.22852
7348 1 1 12.5281 6.69958 0.842767 2.27619
91 1 1 13.7749 6.92959 1.49373 0.524179
276 1 1 14.7934 6.37172 37.4928 3.84496
7972 1 1 15.0211 6.52068 1.90658 1.3168
79 1 1 17.6974 7.30062 0.997042 3.37129
7479 1 1 17.0284 5.86905 0.983003 0.887402
72 1 1 18.5368 6.51348 0.40163 0.389065
6762 1 1 1.01449 7.99561 0.935805 0.680696
6705 1 1 2.07514 7.38795 0.298287 2.41386
158 1 1 2.59119 8.15597 1.16236 0.534125
7424 1 1 1.97288 8.60618 0.198286 0.890177
7047 1 1 2.96725 7.07307 0.324928 1.64432
997 1 1 5.82556 8.13808 0.449059 0.614953
925 1 1 4.78903 7.99142 36.821 0.177753
7803 1 1 4.37702 7.8065 0.47232 0.199893
6235 1 1 6.82052 8.49252 0.00928116 0.162276
6874 1 1 7.52681 8.64433 0.719261 0.730953
7096 1 1 8.07041 8.00778 1.47784 2.90735
1820 1 1 7.33297 7.60079 0.566643 0.250937
214 1 1 9.47571 8.68686 0.463351 0.66651
6619 1 1 11.3152 8.13568 0.463691 1.68282
181 1 1 12.2691 7.7922 1.2489 1.50725
86 1 1 13.1775 8.49219 37.6171 1.6477
762 1 1 15.9131 7.309 1.07702 1.99927
617 1 1 14.379 7.07098 0.569971 0.500023
108 1 1 16.8031 7.9724 0.701465 0.343669
884 1 1 0.0946714 8.22232 37.2614 1.53149
736 1 1 0.81904 9.01544 1.18453 1.33125
146 1 1 0.473022 9.62083 36.7054 3.22704
5397 1 1 1.05664 9.06791 0.04625 1.28441
442 1 1 1.93409 8.92875 1.3511 1.07433
7721 1 1 1.51914 10.3309 0.915859 0.932571
6126 1 1 4.58536 10.4584 1.15048 0.857159
538 1 1 3.54586 8.82559 2.06159 0.602312
178 1 1 4.94247 9.38834 37.3429 2.72915
5813 1 1 5.88634 9.15927 37.6264 0.205143
7326 1 1 6.35828 10.2616 1.42095 0.278328
1046 1 1 7.26121 9.45066 1.31088 0.687753
721 1 1 9.19456 9.77922 0.690711 1.34285
1224 1 1 8.23635 9.3097 1.22199 1.13333
570 1 1 10.4724 8.97309 1.03677 1.33791
6470 1 1 10.367 9.73454 0.238016 0.114472
6933 1 1 12.5142 8.80924 0.53625 0.235812
6527 1 1 11.3149 10.4862 0.144737 1.96999
6693 1 1 13.4813 9.629 1.18804 2.66872
349 1 1 13.9064 9.62832 0.0577634 0.913826
1349 1 1 14.9797 9.34508 1.14071 0.43567
253 1 1 14.5121 8.23816 0.235612 0.645998
1074 1 1 16.045 9.70059 0.0109682 4.06084
877 1 1 17.146 9.27653 0.151251 0.103259
712 1 1 17.4281 10.2477 1.25331 0.434054
7913 1 1 16.3592 8.53582 1.74246 3.78209
1036 1 1 18.2231 9.08617 0.45186 0.877176
889 1 1 0.419058 10.5817 0.780291 0.946708
1093 1 1 3.0237 11.5048 1.11351 2.90625
1280 1 1 3.02175 10.0334 0.654692 2.89114
7011 1 1 3.73521 11.0255 1.86628 0.357862
7144 1 1 4.66989 10.4229 37.1935 1.80247
1172 1 1 5.61896 10.6191 0.424031 1.5194
7621 1 1 6.26939 11.2012 1.278 1.6648
6842 1 1 6.8246 10.1541 0.449786 1.3494
7065 1 1 8.02317 10.3715 0.436712 1.9493
10 1 1 7.29436 10.5202 1.83027 2.02459
7740 1 1 9.45476 10.8126 0.786429 1.35739
6750 1 1 10.8511 11.3087 0.585542 0.622906
574 1 1 12.6581 10.2509 0.728295 0.205553
7635 1 1 13.5086 10.5888 0.134506 0.891554
423 1 1 14.5984 11.4523 1.61236 1.19624
501 1 1 15.5694 12.0401 0.727663 2.2758
683 1 1 15.4318 10.6228 37.4917 1.76788
669 1 1 16.3338 10.0452 1.31212 2.99496
247 1 1 18.2569 10.2219 0.467694 4.42745
5857 1 1 17.885 11.4445 0.612379 1.44224
1528 1 1 0.492544 12.1548 0.535109 0.427316
1350 1 1 1.89313 12.1923 0.803075 0.723329
7060 1 1 1.75642 11.2692 1.39243 0.210592
7174 1 1 3.9995 11.9781 0.674678 0.417273
1681 1 1 5.54897 12.3013 1.64802 1.72216
584 1 1 5.7528 11.9295 0.461037 0.929649
365 1 1 7.08114 11.8262 0.649702 3.40423
955 1 1 8.12196 12.6446 0.100396 0.969088
38 1 1 9.90038 11.7039 1.18673 0.573483
255 1 1 8.95565 11.8445 1.94544 1.68556
6752 1 1 9.55929 12.6986 0.527459 0.065699
6567 1 1 10.3022 12.1337 0.00578617 0.095983
286 1 1 10.6294 12.5248 1.08722 3.34677
7545 1 1 12.6203 12.7472 0.897282 0.283808
7634 1 1 13.7368 12.7579 0.55807 0.714787
237 1 1 15.1268 12.6726 1.67875 0.472845
7483 1 1 16.3182 11.0031 37.5046 0.674887
6599 1 1 16.7202 11.6284 1.40452 2.25077
7089 1 1 16.0395 12.4596 1.46825 0.606949
579 1 1 17.5407 13.3641 1.29313 0.184016
1234 1 1 18.2166 12.1723 1.1156 0.890931
7555 1 1 0.644196 13.2298 1.06384 1.6541
6788 1 1 2.93499 13.8029 0.0530719 0.897297
8000 1 1 4.32901 13.2152 0.843888 0.481259
6232 1 1 3.5191 14.3015 0.96473 0.935114
1995 1 1 5.2945 13.5374 1.52404 2.31488
215 1 1 5.27702 14.1451 0.558234 3.538
815 1 1 5.76671 13.3064 0.618696 4.23952
1908 1 1 8.59422 13.9592 0.667917 3.16415
5866 1 1 9.02439 13.0082 1.31877 0.794506
53 1 1 10.2506 13.7316 0.820986 0.33555
6686 1 1 11.168 14.1272 1.05647 1.00971
7888 1 1 15.7675 13.329 1.01921 0.209199
7390 1 1 14.7565 12.9716 0.681834 2.44481
234 1 1 16.746 14.1082 0.918489 0.599787
375 1 1 17.4339 14.4319 1.63493 0.321393
7826 1 1 18.3519 14.3527 0.451756 2.80308
634 1 1 17.3216 12.8696 0.267145 1.26854
7947 1 1 0.0523466 13.3173 0.262866 0.357415
7968 1 1 0.415417 15.0258 0.90617 2.85487
1529 1 1 1.32423 14.6282 1.36538 1.22327
559 1 1 1.55735 15.7716 0.302117 2.00882
704 1 1 6.36889 14.7324 0.530191 2.68389
7854 1 1 4.15603 15.3009 0.527302 0.936889
769 1 1 4.60202 14.4198 1.50874 0.636237
6379 1 1 6.21599 14.1575 1.68249 1.74349
7926 1 1 5.5024 15.7602 1.18956 2.60271
504 1 1 6.94064 15.2202 1.50699 3.39943
6600 1 1 6.52645 15.9005 0.624572 0.840939
1150 1 1 7.74291 14.7 0.0957572 2.92675
7457 1 1 8.9244 15.2811 0.597677 0.690941
377 1 1 12.4385 14.658 1.30845 1.61327
746 1 1 15.453 15.0353 0.173615 0.691361
1042 1 1 17.4818 15.2116 0.440876 4.06462
629 1 1 16.1795 14.8484 1.97505 2.50952
558 1 1 18.2478 15.1571 1.29396 2.84094
7869 1 1 16.3874 15.0209 37.0656 0.709626
7951 1 1 0.51513 17.1485 0.553594 0.500754
7604 1 1 3.35803 17.5445 37.4152 4.59642
1485 1 1 1.35776 17.5703 0.379454 1.87733
1481 1 1 4.91328 16.8885 0.417304 2.03559
775 1 1 4.30708 16.91 37.215 2.46051
7569 1 1 8.53083 16.7502 0.533228 0.462937
7206 1 1 7.23518 16.594 0.189272 0.31304
6914 1 1 7.30044 16.4362 1.33943 0.93618
227 1 1 9.6955 16.3026 0.984719 0.936834
708 1 1 9.92096 16.8977 37.5603 1.55986
7550 1 1 10.7773 17.4381 0.982194 3.13155
7341 1 1 12.085 17.1488 0.531584 2.83038
1110 1 1 12.7101 16.4881 0.0852478 0.635595
22 1 1 14.383 16.818 0.975149 1.44149
356 1 1 12.6609 18.1102 0.163484 2.3585
7202 1 1 15.7264 16.2209 0.265131 1.68557
7999 1 1 17.6016 16.1522 1.38037 1.71554
6845 1 1 0.496701 17.6895 37.1597 0.265531
6777 1 1 3.13534 18.0575 1.03962 1.06996
194 1 1 1.8189 18.4141 0.607655 0.449362
6713 1 1 3.60803 16.5726 0.925155 3.41334
6835 1 1 5.06948 0.353604 0.955797 0.722105
1573 1 1 5.01859 17.9879 0.670647 0.20779
228 1 1 6.50897 17.6092 1.02579 3.84185
3576 1 1 7.51144 17.533 0.196971 0.332106
1206 1 1 8.88112 17.8275 0.524987 0.823328
1139 1 1 9.89983 18.4429 1.08093 0.644909
2020 1 1 11.674 17.9519 37.4362 0.703897
1339 1 1 10.8341 18.7043 1.03661 1.58213
338 1 1 11.8447 18.3348 0.809097 1.12506
6636 1 1 14.8424 17.5522 0.490541 0.361104
7478 1 1 17.1253 17.5059 0.876532 0.616311
7261 1 1 18.496 0.566127 1.42798 0.771537
2367 1 1 0.325412 18.4386 0.762954 2.94347
33 1 1 17.2927 17.5621 37.3492 1.49064
1999 1 1 18.63 1.73478 2.08028 0.497388
1198 1 1 1.22292 18.8129 1.49271 0.109967
643 1 1 2.91145 0.37781 1.39662 1.78448
2347 1 1 1.75075 0.288463 2.36072 1.01446
6152 1 1 2.77981 1.45483 2.15859 1.76655
175 1 1 5.30173 0.742048 2.01519 0.926929
895 1 1 4.53299 1.84953 2.55206 1.80744
633 1 1 6.63519 0.495017 3.21073 0.296589
1446 1 1 6.35731 0.453081 1.32986 1.5717
1416 1 1 7.61722 18.6877 2.09548 3.22802
94 1 1 8.50373 0.523398 1.62795 1.91092
1749 1 1 10.2935 0.491758 2.42722 0.684892
824 1 1 9.54553 0.933575 1.70868 2.93951
6079 1 1 10.661 1.1843 1.69442 0.573688
7745 1 1 11.6765 0.202404 1.53782 0.804941
383 1 1 14.515 0.46253 1.68861 2.12617
677 1 1 14.7483 1.69573 1.20312 2.6651
608 1 1 18.4073 0.348721 2.80279 0.659299
31 1 1 0.610148 2.44433 1.61577 0.370935
1348 1 1 0.839995 1.22189 1.04843 1.54925
427 1 1 0.258568 2.68201 2.60887 2.63952
155 1 1 1.57286 1.31397 2.29092 3.19459
7903 1 1 1.75018 2.40933 1.63806 2.21209
109 1 1 2.44996 2.27444 2.78111 0.131856
406 1 1 3.54876 2.48226 2.26608 1.5076
936 1 1 4.84023 3.67496 1.92217 4.14403
2126 1 1 7.2837 1.09338 2.05239 0.870135
7539 1 1 10.1168 1.37376 2.95865 0.727574
1993 1 1 10.7703 2.2141 2.55441 0.937632
418 1 1 11.7485 1.77559 2.09628 1.44622
1213 1 1 12.6039 0.88261 2.02758 0.741482
100 1 1 11.8741 2.68757 2.66908 2.85803
1308 1 1 13.8005 1.19834 2.2249 1.58716
1007 1 1 15.4891 0.891507 1.98608 2.84921
1344 1 1 17.4679 1.80452 2.3449 3.07637
206 1 1 16.839 2.60122 2.54283 1.52434
7088 1 1 18.068 2.71953 1.8003 2.28701
7980 1 1 1.34604 2.28981 2.67033 2.05192
7646 1 1 0.710119 4.50491 1.98863 1.65333
6995 1 1 1.69832 4.65829 1.69939 5.08323
875 1 1 1.53127 3.57106 2.38502 2.19899
1409 1 1 2.81333 4.53971 2.00239 2.60441
879 1 1 3.6168 3.69989 2.30226 1.77266
1237 1 1 4.50094 2.48201 3.43468 4.19708
7251 1 1 2.50986 3.56572 2.72661 2.88344
580 1 1 5.36566 3.49945 1.03467 0.727767
125 1 1 5.37375 2.8717 2.83236 2.33642
623 1 1 7.5011 4.07034 1.97853 1.85727
656 1 1 6.30558 3.63102 2.24535 0.341075
385 1 1 7.72204 3.0513 2.73663 0.785634
6659 1 1 8.85566 3.20423 3.11376 0.478723
934 1 1 9.4924 3.29859 2.14189 3.03968
3337 1 1 11.1835 3.4187 2.73832 1.87146
7588 1 1 11.0859 3.28433 1.64392 3.74373
505 1 1 13.2591 2.57823 2.07074 0.727085
7719 1 1 13.0927 4.73959 2.24477 0.239552
1377 1 1 13.8951 3.69006 1.88733 1.52145
1422 1 1 14.7994 3.84258 3.50477 1.98644
1183 1 1 15.6266 3.67292 1.87337 0.705394
651 1 1 16.6801 3.66778 2.04295 0.501699
7998 1 1 17.0888 5.02581 2.26152 1.19692
314 1 1 18.3689 4.25578 2.20037 2.188
802 1 1 1.15042 5.55239 1.47157 1.01992
1287 1 1 0.75064 5.36333 2.59275 1.45938
190 1 1 2.13493 5.56654 1.70675 0.576829
2824 1 1 4.08115 4.5835 2.65602 1.25216
1714 1 1 3.31532 5.41768 2.57151 0.826504
7631 1 1 4.96634 4.77378 1.68572 0.0802557
1717 1 1 5.97259 5.34635 2.92842 0.53888
1977 1 1 4.62509 5.66155 2.86708 0.957217
661 1 1 6.0845 4.63466 1.89807 0.982777
6922 1 1 7.42947 5.50257 1.93934 1.17197
1076 1 1 8.54339 4.40783 1.71134 1.35596
6136 1 1 8.17831 5.43025 2.84921 2.4604
492 1 1 11.5657 6.24583 2.13246 2.04311
1051 1 1 10.1243 5.11549 2.57336 1.11604
582 1 1 11.877 5.68953 0.84933 4.92356
2221 1 1 12.149 5.18251 3.02359 0.18813
7185 1 1 15.3962 4.93433 1.42943 0.688707
6241 1 1 16.2903 4.5333 1.55342 4.92276
444 1 1 0.0145865 5.50205 1.73693 2.54378
6975 1 1 1.18906 7.28389 1.62171 0.180664
1562 1 1 0.607949 6.46211 1.48483 0.126677
230 1 1 1.09893 6.38403 2.53908 3.67462
7659 1 1 2.37665 5.9663 2.85218 0.420265
7738 1 1 3.8498 6.70514 2.16631 0.225483
7651 1 1 3.12783 6.91999 2.99559 0.477886
7215 1 1 5.02627 6.77199 2.0873 2.76633
1405 1 1 8.2133 6.20283 3.59813 5.75799
2348 1 1 9.1514 5.06757 2.34467 0.71656
1194 1 1 9.48152 7.55392 2.62376 0.951962
140 1 1 12.8008 6.05751 2.27145 1.43085
469 1 1 13.8797 5.33314 2.69415 3.88018
1193 1 1 14.0362 5.35272 1.57334 0.111652
1274 1 1 15.1144 7.11751 2.85662 2.69844
2197 1 1 16.2029 5.71779 2.12581 1.20416
223 1 1 15.3779 6.01693 0.584717 1.24659
7358 1 1 17.0645 6.3383 1.98098 0.675747
6675 1 1 18.8166 6.37304 2.89933 1.47241
1596 1 1 0.15403 7.36023 2.18838 0.638956
1917 1 1 2.16147 7.72582 3.29209 1.85601
926 1 1 1.06257 8.24344 2.33455 3.46655
7791 1 1 3.31078 8.59634 3.16869 0.939828
7966 1 1 2.31111 8.48984 2.38144 0.580069
5817 1 1 4.74894 6.56926 1.04876 0.586983
1002 1 1 3.50629 7.75778 2.23816 1.91696
626 1 1 4.98137 8.38145 1.97919 0.133885
615 1 1 5.4518 8.08374 3.01161 0.806104
7643 1 1 7.12756 7.23226 2.81848 2.44255
1427 1 1 6.83331 7.8165 1.4421 2.17699
568 1 1 8.0607 7.71936 2.69899 3.00351
7748 1 1 10.3381 7.37759 2.02463 0.268499
6538 1 1 10.8309 7.79532 2.85196 0.148973
188 1 1 11.383 8.55845 1.5248 1.24659
1069 1 1 12.5721 8.16329 2.27614 2.36785
285 1 1 14.2566 7.82874 2.75672 0.868265
7021 1 1 13.4083 8.56608 1.19076 0.818017
7983 1 1 15.6034 7.92784 2.16237 0.819988
550 1 1 14.8653 8.10918 1.30649 1.60504
7717 1 1 16.8374 7.51783 1.7752 1.84099
1318 1 1 0.0649155 8.48521 1.98999 0.238731
6875 1 1 17.4815 8.18901 2.10504 0.058538
7280 1 1 18.1863 6.42948 1.83298 0.266943
107 1 1 17.9285 7.19827 2.85562 2.18062
2110 1 1 0.864351 9.16555 2.85771 0.373068
481 1 1 2.15217 9.50663 2.27865 0.502049
750 1 1 2.27911 10.169 1.54644 0.804407
7482 1 1 4.39751 9.09284 3.00369 1.81893
1301 1 1 5.43149 9.27879 2.25465 0.176524
6987 1 1 6.70848 9.81021 2.37093 3.98022
1547 1 1 6.24025 8.95734 1.78965 3.71043
7335 1 1 8.37996 8.77499 2.92495 0.359143
1001 1 1 7.71342 8.73307 2.10547 1.43545
2177 1 1 9.65582 9.24374 1.57451 0.34859
7002 1 1 8.96567 9.79315 2.34297 0.901123
7943 1 1 9.98185 10.1021 2.49496 1.52679
2244 1 1 10.979 10.0459 1.70195 1.6938
6497 1 1 11.549 9.604 2.87838 0.286284
6463 1 1 12.2389 9.69676 2.02363 4.10815
6669 1 1 15.2503 9.18912 2.13756 0.2983
973 1 1 14.2855 10.1138 1.74324 0.489719
7851 1 1 16.607 8.79102 2.95122 1.10583
790 1 1 16.1354 9.74021 2.37347 0.823887
6569 1 1 0.167264 10.0658 1.68901 0.954357
967 1 1 2.89235 10.6543 2.57323 3.20591
863 1 1 1.25756 9.9443 2.18333 2.57914
1790 1 1 6.75487 12.0901 1.75664 1.2932
1417 1 1 5.80013 10.5828 2.50745 0.6893
1542 1 1 7.92458 9.74354 2.07025 0.322914
232 1 1 11.9637 11.162 1.30997 3.68849
1107 1 1 10.0718 10.1329 1.18089 2.55712
7984 1 1 10.7382 11.0073 2.80489 0.406437
7156 1 1 12.1952 10.7394 2.42706 0.115022
653 1 1 12.0033 11.8228 2.18903 1.34036
296 1 1 14.0465 8.96639 2.10624 3.44948
6590 1 1 13.1082 12.2347 1.60677 1.69761
6939 1 1 13.1863 11.156 1.15405 1.65942
84 1 1 15.9305 10.4659 3.85664 0.984836
386 1 1 13.7149 10.9375 2.2274 0.80374
7470 1 1 17.0423 10.1008 3.04815 0.593978
818 1 1 15.9231 10.7923 2.67033 1.49696
7800 1 1 17.7824 10.9211 2.33066 0.164941
7845 1 1 1.12912 12.1191 2.6988 1.07677
1360 1 1 0.892585 11.1123 2.14427 0.472501
259 1 1 0.404138 12.0708 1.56176 0.246
7811 1 1 0.128998 12.9953 2.10331 2.70571
340 1 1 2.55231 12.3447 1.54941 2.37612
6646 1 1 3.62287 12.674 1.43463 0.715114
7805 1 1 2.58208 11.6749 2.55289 0.644644
773 1 1 3.25855 12.4856 2.44912 1.87891
834 1 1 4.34615 13.1846 3.06017 2.73081
7248 1 1 4.36924 11.8434 2.09405 0.719572
290 1 1 6.04505 12.4949 2.52853 1.48245
7704 1 1 7.7425 11.4062 2.07499 0.0907059
1165 1 1 8.08315 12.4163 2.8804 0.390276
6946 1 1 9.57317 11.5234 2.94141 2.37919
4198 1 1 11.4803 12.8217 2.41862 0.633086
2814 1 1 12.5885 12.9208 2.31297 2.19004
7444 1 1 14.1657 12.6044 2.37346 1.21712
7867 1 1 16.1544 11.8623 2.39631 5.57787
1971 1 1 17.7501 12.6091 2.08154 0.786583
7855 1 1 0.134544 14.0412 1.59517 3.13775
7772 1 1 1.38349 13.1739 2.55016 2.53138
245 1 1 2.47525 12.962 3.14078 1.25005
6650 1 1 2.62528 13.2091 2.10457 0.498218
7056 1 1 3.80814 13.6988 1.89682 2.0848
7610 1 1 5.75204 13.426 2.3996 2.69939
452 1 1 6.55505 12.9696 1.47855 1.60156
1144 1 1 8.12931 12.443 1.41818 2.46871
1448 1 1 7.92202 13.5489 2.64746 0.823667
1210 1 1 7.18414 14.0879 0.947208 1.27254
1178 1 1 9.82804 13.4363 2.34908 1.31125
6632 1 1 8.62035 14.1716 2.06999 1.90446
1848 1 1 9.93033 14.2985 3.16804 2.31754
1103 1 1 11.6831 14.2529 2.17783 2.24612
6824 1 1 12.8125 13.847 1.8274 1.31289
1187 1 1 13.4419 13.4487 2.84235 0.851831
1143 1 1 15.7168 13.0781 2.45007 2.11217
7853 1 1 14.841 14.5646 2.58641 0.519624
393 1 1 16.3248 13.8558 2.33087 1.98693
7887 1 1 0.0700927 14.0442 2.73658 1.10114
1604 1 1 17.9425 13.7686 2.50878 1.22432
757 1 1 0.953099 16.6284 1.81252 1.65177
1509 1 1 0.691363 16.0653 2.77253 4.00177
7957 1 1 2.2934 15.1275 2.40861 0.46802
6243 1 1 2.31832 14.3038 1.17127 3.35689
445 1 1 3.72453 14.3039 2.9894 7.99758
399 1 1 4.8414 14.1349 3.24406 1.45707
1527 1 1 5.47879 14.8637 2.11671 4.52461
6851 1 1 8.45145 15.8627 1.668 0.696629
902 1 1 7.59783 14.4093 1.9589 0.896578
829 1 1 9.55388 14.8856 2.40273 0.482516
7040 1 1 11.2865 15.1435 0.581074 0.570803
2661 1 1 11.2291 14.4562 3.11148 1.34758
3108 1 1 11.7652 15.3066 2.21731 1.64122
6723 1 1 12.9419 16.1531 1.40949 0.305222
389 1 1 14.2091 15.4796 2.65552 0.973544
2345 1 1 13.9618 14.2058 2.06892 0.672584
7548 1 1 15.1939 13.9284 1.66773 1.20251
2287 1 1 14.8432 15.9051 1.5326 0.084898
1439 1 1 15.1817 15.9684 2.83965 0.817623
1638 1 1 18.766 15.1633 2.20149 1.33646
785 1 1 1.49042 17.2331 2.5769 2.13198
328 1 1 0.0418753 17.6727 1.99056 2.55034
844 1 1 2.51659 16.3091 2.41229 5.61215
332 1 1 3.75169 16.5049 2.27218 2.61958
6459 1 1 4.23732 15.7848 1.74616 0.956769
7613 1 1 5.64666 16.7385 1.61588 0.789796
728 1 1 5.94406 15.8359 2.19219 0.686082
7856 1 1 8.57467 17.6636 2.24544 1.62743
1432 1 1 7.3852 15.824 2.35242 1.37585
1582 1 1 9.40712 17.5737 1.51218 5.42798
854 1 1 10.1458 15.788 1.99475 0.629577
416 1 1 10.7689 16.3069 2.57073 0.17989
343 1 1 12.2 16.9405 1.6065 0.986774
7149 1 1 11.7775 17.0454 2.69764 2.67164
1904 1 1 11.9083 15.9391 3.26892 0.416343
1406 1 1 13.7321 16.3484 2.80995 4.97393
40 1 1 16.2235 16.6086 2.19014 2.92817
2409 1 1 17.6119 15.4294 2.35227 1.97062
5999 1 1 18.7685 16.213 2.01036 0.226949
1634 1 1 1.40956 18.1897 3.00465 2.6098
318 1 1 2.49052 18.0568 2.35762 0.723802
686 1 1 2.02379 17.5703 1.24672 2.89682
1729 1 1 3.46208 18.1946 1.98685 0.754345
6866 1 1 4.37016 17.5505 1.50733 0.531348
1328 1 1 5.59223 17.8787 2.17906 0.157747
7785 1 1 6.52969 18.3301 1.92316 0.332735
605 1 1 8.17865 17.5593 1.13933 1.05712
1785 1 1 9.50261 18.2711 2.77872 0.536227
7230 1 1 10.2467 17.6613 2.92515 1.43303
6673 1 1 10.9652 18.3207 2.80832 1.40101
696 1 1 12.3274 18.3581 2.51038 0.71655
841 1 1 10.8969 17.4892 1.96232 0.907471
2270 1 1 13.8548 17.4244 1.751 2.31476
273 1 1 13.9336 18.5346 0.768305 1.61071
859 1 1 16.0953 17.7119 2.05749 4.2689
180 1 1 15.7432 17.3328 3.24016 1.5721
1186 1 1 15.0816 18.2141 1.48334 1.29868
7930 1 1 17.8799 18.0143 1.42863 0.245644
7188 1 1 0.449818 18.6311 2.14033 2.73372
1926 1 1 17.8058 17.0336 2.94305 1.46499
7938 1 1 0.38558 0.8484 2.10202 2.39145
7934 1 1 2.7821 0.806842 3.53571 0.401485
489 1 1 1.6971 0.458758 3.42272 1.10466
3146 1 1 2.319 0.0835413 4.39374 0.704132
1930 1 1 3.33114 1.74449 3.06893 2.16748
1140 1 1 4.33848 18.4885 2.7854 3.68981
7122 1 1 4.33202 18.6554 4.40654 0.809452
1331 1 1 4.88393 1.00367 3.47556 3.56458
6321 1 1 5.84205 1.1219 3.80651 0.187324
1168 1 1 7.79426 0.544606 2.97811 3.11925
497 1 1 8.22081 1.12964 4.17387 0.0303269
566 1 1 9.02452 1.06833 3.19373 1.50717
1658 1 1 9.31613 0.22846 3.84891 2.17187
700 1 1 11.0605 1.47212 3.29568 0.341872
1708 1 1 10.2844 1.01729 4.14354 0.16383
906 1 1 11.6765 0.440729 3.19391 0.253234
2106 1 1 13.6966 0.222884 2.89488 1.92708
871 1 1 12.7834 1.02587 3.51643 1.85397
990 1 1 15.5319 18.5436 2.68526 3.67136
787 1 1 17.4108 0.443783 3.14782 0.226782
982 1 1 15.6204 1.30403 3.62412 1.51998
7950 1 1 15.9875 0.391635 4.36874 4.87907
1223 1 1 18.2057 1.2602 3.5305 0.647265
894 1 1 17.8236 0.580454 4.18968 1.52532
1265 1 1 0.959287 1.75512 3.57738 1.36182
915 1 1 1.92315 1.43532 3.62961 0.562445
1279 1 1 2.70111 1.89048 4.14053 0.402726
611 1 1 2.06224 2.53278 3.7412 0.127587
1543 1 1 6.14879 1.83871 3.10726 1.11704
1208 1 1 7.16599 1.85532 3.20827 0.814782
886 1 1 8.10353 2.20098 4.28735 0.0534002
96 1 1 8.99477 2.62955 3.9731 0.789091
2103 1 1 9.37581 1.73143 3.86096 1.79165
553 1 1 11.5714 2.27459 3.5946 0.390221
640 1 1 13.8099 2.09204 3.228 1.30425
409 1 1 13.7273 1.18587 4.179 1.60149
387 1 1 15.086 2.1731 3.55359 0.283126
1229 1 1 15.7406 2.2475 4.38746 0.904055
7246 1 1 16.6097 1.17182 2.83873 2.58475
7914 1 1 17.4924 2.32615 3.88495 1.18776
816 1 1 0.461947 3.83651 3.05676 0.993627
1338 1 1 1.03076 3.89683 4.0243 1.13011
1805 1 1 1.95104 3.54527 3.71346 1.54734
7284 1 1 2.93205 3.93967 3.69968 1.8938
509 1 1 3.11991 2.68632 3.4586 0.155109
1281 1 1 3.64872 4.42394 4.47229 1.15663
7123 1 1 4.20758 3.64729 4.03453 0.33279
56 1 1 7.19762 2.70053 3.70235 0.622381
585 1 1 8.14646 4.34731 2.92217 1.50625
528 1 1 7.97717 3.61593 4.11929 1.51855
2318 1 1 7.30703 3.89137 3.36981 1.14899
7989 1 1 9.77907 2.54802 3.22087 0.796087
177 1 1 9.19993 4.09012 2.65051 3.85283
7685 1 1 9.16019 3.93803 3.85911 0.967142
1661 1 1 11.7871 3.47516 3.65823 1.64368
1826 1 1 10.4259 3.71896 3.84422 0.227781
7725 1 1 13.2029 4.58565 3.37396 0.471909
7155 1 1 13.7569 3.1603 3.101 0.815497
1203 1 1 13.9821 3.41974 4.5427 2.54635
1239 1 1 16.278 3.48767 3.40336 1.2661
7468 1 1 17.3266 3.42836 3.3223 0.403699
148 1 1 18.5725 3.92232 3.86275 2.75388
1591 1 1 17.8967 2.74941 2.9161 0.385272
3932 1 1 0.589166 5.14834 3.56733 1.95785
6396 1 1 2.33658 4.48827 3.07931 1.48371
15 1 1 3.80849 5.1095 3.45927 0.211408
62 1 1 5.05732 4.44374 2.78525 4.93511
7532 1 1 6.94312 4.76758 2.65377 3.66472
691 1 1 7.49967 4.95412 3.67732 2.15732
1648 1 1 8.90352 4.85891 3.54441 1.4648
122 1 1 10.3648 5.65536 3.84777 0.348841
2455 1 1 10.5452 4.66284 4.63734 0.43314
1698 1 1 11.8901 6.08656 3.46614 3.34198
7422 1 1 12.7948 5.56729 4.03208 1.07707
6541 1 1 14.0996 4.51813 4.4897 3.64548
2075 1 1 13.2276 4.17356 4.99102 3.17199
2392 1 1 14.6369 6.22812 3.99287 1.10369
581 1 1 16.8255 4.71862 3.28615 2.21069
486 1 1 15.8404 4.69757 2.74356 0.668149
102 1 1 16.114 5.6943 3.21666 2.09298
235 1 1 17.8798 5.80283 2.63712 1.2122
6533 1 1 0.854145 6.63397 4.23981 2.37987
7456 1 1 1.70612 6.78113 3.68931 0.778637
523 1 1 1.44917 5.75976 3.6129 0.565943
548 1 1 2.79201 6.34004 3.7383 1.23504
1883 1 1 3.57585 6.31838 4.67476 0.346577
6767 1 1 3.85054 7.76454 3.33265 1.763
7921 1 1 5.95178 6.97753 2.94359 2.03045
1177 1 1 7.3267 6.80441 3.83156 0.464224
7904 1 1 6.6902 5.97143 3.31981 0.167647
455 1 1 9.09894 5.97706 4.05045 0.951789
980 1 1 11.179 6.16729 4.35313 0.661729
1833 1 1 13.8538 5.48255 4.40115 0.705139
2017 1 1 13.7386 6.38779 3.15877 2.22459
591 1 1 16.0937 6.70981 2.08137 2.31334
1715 1 1 16.92 6.46638 3.15634 2.22175
928 1 1 17.6487 6.35775 3.89611 1.18006
1637 1 1 0.405142 7.55219 3.49628 1.66678
1399 1 1 0.12965 7.51539 5.01338 0.278809
7795 1 1 1.51959 7.76936 4.14369 3.49453
134 1 1 3.31773 8.12954 4.18062 1.65459
1864 1 1 6.54137 7.54428 3.67842 0.406289
1334 1 1 7.78596 8.17882 3.66207 3.00201
7459 1 1 8.85637 8.54556 4.61235 1.16773
7322 1 1 8.59347 7.43389 3.51301 0.596293
1927 1 1 10.0336 6.58423 3.77874 1.11988
5690 1 1 11.3594 7.31562 4.03747 0.545043
277 1 1 11.3868 8.57895 3.15636 1.26725
648 1 1 12.4616 8.26942 3.46511 0.414763
985 1 1 11.8849 7.035 2.94503 0.294392
610 1 1 12.5176 8.12865 4.49213 3.84868
488 1 1 13.6254 7.43021 3.86505 0.386645
5812 1 1 14.768 7.74667 3.70496 0.788165
1537 1 1 15.3866 8.42339 3.00688 1.04653
960 1 1 17.0772 8.5537 4.1039 6.06817
913 1 1 17.0305 7.42192 3.58231 0.90272
114 1 1 2.21108 10.5726 3.15603 3.08008
2239 1 1 2.0194 9.5113 3.42486 0.917494
959 1 1 2.74238 10.0297 4.26989 1.37879
996 1 1 3.00559 9.58286 2.91923 2.33607
1863 1 1 3.4796 10.3891 3.71619 1.89612
667 1 1 3.44426 9.31305 4.0924 1.88076
1415 1 1 5.814 9.6155 3.22592 0.119501
344 1 1 6.29954 10.0026 4.69949 0.959812
1475 1 1 7.57383 10.8818 2.95201 2.0808
1217 1 1 7.12928 9.23069 3.13433 1.28794
2874 1 1 7.98451 9.19922 3.79736 0.53318
1781 1 1 9.28715 9.31141 3.14912 1.05345
7573 1 1 10.2652 10.0078 3.68842 1.30543
183 1 1 10.6651 9.23844 3.26702 1.3148
7138 1 1 11.6787 10.0526 3.76067 0.842731
1906 1 1 12.6619 9.26421 3.92367 0.450047
2320 1 1 14.0453 9.80703 3.5962 1.13093
738 1 1 12.952 10.3116 3.87343 1.21084
240 1 1 15.1147 9.26996 3.61556 1.0783
1942 1 1 16.5651 9.60074 3.8588 2.05351
6561 1 1 17.8072 9.40244 2.82964 0.442088
1113 1 1 18.6622 9.34986 4.57708 3.72754
1870 1 1 17.7259 9.77821 4.07833 1.34579
336 1 1 0.419196 9.88036 3.76808 3.36909
1793 1 1 1.04783 10.6914 3.57396 0.502997
1272 1 1 1.14949 11.0281 4.71292 1.58885
1728 1 1 2.42842 11.087 4.26241 1.33279
369 1 1 4.39304 10.7866 2.81652 0.579497
243 1 1 3.49488 11.2308 4.38673 0.304209
2311 1 1 4.42013 9.92475 3.86083 1.91973
2980 1 1 4.64052 10.9613 4.48225 2.37494
970 1 1 5.87885 11.0764 3.59735 0.72847
1211 1 1 6.59361 10.3384 3.47381 0.902829
7538 1 1 8.10477 11.1069 3.92701 0.214552
7798 1 1 6.67319 11.2446 4.19925 4.43024
378 1 1 9.04026 11.8163 4.85414 0.951292
221 1 1 8.94844 10.6352 3.01464 1.07099
6896 1 1 9.60803 10.9725 3.77895 2.1264
1487 1 1 13.7134 11.6385 4.19422 2.82125
1100 1 1 10.8526 10.8978 4.05271 0.846704
1965 1 1 14.3512 10.7213 4.05212 0.567075
1072 1 1 13.7676 10.8581 3.18716 0.894396
6913 1 1 16.2146 11.4939 3.52124 1.661
186 1 1 15.0725 9.85218 4.53952 1.41172
1130 1 1 15.4977 11.133 4.82434 3.38556
2798 1 1 16.9981 10.4704 4.42008 1.37476
2151 1 1 17.1367 11.1016 3.215 2.00931
6719 1 1 0.201735 11.0101 3.00853 1.39177
6563 1 1 1.06548 12.3546 3.77277 1.20624
2313 1 1 18.2501 12.7669 5.06015 1.10948
300 1 1 2.35542 11.8947 3.47954 1.37235
203 1 1 3.37707 12.4671 3.69115 0.775022
2357 1 1 3.38796 11.4606 3.16818 0.947137
7474 1 1 5.17465 12.2331 3.85766 0.999302
163 1 1 5.44954 11.7544 2.85116 0.130557
765 1 1 6.54775 11.7443 3.03802 2.03922
1163 1 1 6.07741 12.1372 4.21745 3.46255
1912 1 1 8.63678 13.0233 3.92433 0.877406
201 1 1 10.3342 11.9361 3.62764 1.52487
627 1 1 11.1215 12.0327 4.30427 0.72106
7004 1 1 11.3357 11.8507 3.19887 1.31154
1438 1 1 12.5861 11.7828 3.60597 1.41553
1175 1 1 11.7078 13.1766 4.22801 0.384993
678 1 1 13.7048 11.9164 3.15408 3.9099
1250 1 1 15.267 12.2812 3.39774 0.519523
1590 1 1 16.3161 12.7283 3.31435 0.822021
622 1 1 17.1962 12.1761 3.1445 2.26345
1184 1 1 16.474 11.3002 4.56074 0.250774
1079 1 1 18.5785 12.0329 2.59945 2.19255
435 1 1 17.7021 13.0204 3.32393 1.86993
7670 1 1 17.2496 11.7112 2.19255 0.215846
962 1 1 0.346429 12.8934 3.08832 2.12289
878 1 1 0.366125 14.934 3.77707 2.0243
6531 1 1 1.29928 14.4484 2.95265 1.73921
7847 1 1 2.4967 14.0974 3.39769 0.957376
7212 1 1 0.861346 13.5555 3.71108 4.14111
1895 1 1 4.02493 13.1733 4.10101 0.48832
1561 1 1 3.51272 14.2143 4.02382 1.04914
7085 1 1 5.60633 14.1756 3.85553 1.03437
795 1 1 4.6629 14.4055 4.15145 2.14024
292 1 1 6.37953 13.3925 4.35932 5.12362
6536 1 1 6.85643 13.0433 2.84686 0.84239
381 1 1 10.9386 13.2567 3.10663 1.26186
342 1 1 10.5098 13.0015 4.60762 4.86126
2224 1 1 12.2641 13.7324 3.1349 1.72862
1676 1 1 14.7438 13.733 3.31924 3.28428
1986 1 1 16.3548 14.4626 4.72322 1.90681
7993 1 1 16.6714 12.9211 1.99754 0.438995
1024 1 1 16.565 13.6545 3.45371 1.19853
1514 1 1 18.3379 14.4116 3.53981 0.363348
7480 1 1 17.5791 13.5029 4.78141 1.75634
1116 1 1 0.450111 16.2439 3.86824 1.35851
7863 1 1 2.7404 15.5839 3.48098 1.0922
1146 1 1 1.40759 15.6154 3.30854 1.02995
1486 1 1 4.15874 15.021 3.57982 0.490399
487 1 1 6.58598 14.888 2.65245 0.443145
1337 1 1 5.79975 15.507 3.76824 2.33096
1128 1 1 8.35412 15.1096 4.04202 2.02759
961 1 1 8.32863 15.1072 2.36456 1.09762
7489 1 1 8.56654 16.2218 2.60848 1.59018