ITEM: TIMESTEP
200
ITEM: NUMBER OF ATOMS
8000
ITEM: BOX BOUNDS pp pp pp
0.0000000000000000e+00 1.8820720577620570e+01
0.0000000000000000e+00 1.8820720577620570e+01
0.0000000000000000e+00 3.7641441155241139e+01
ITEM: ATOMS id mass type x y z v_temp
1634 1 1 0.249203 0.854815 2.92671 1.63134
1142 1 1 17.8044 18.709 0.564008 0.448541
7604 1 1 1.60812 18.564 1.12091 0.238611
7210 1 1 3.68686 18.6886 0.259374 0.286782
318 1 1 2.25412 0.792924 1.67937 0.262419
287 1 1 5.81757 0.755914 36.7947 0.847263
7226 1 1 4.73346 0.43089 0.43294 3.87384
6076 1 1 6.17579 1.81604 0.201962 1.94847
7503 1 1 5.61956 1.41913 1.11574 1.13089
6017 1 1 9.78101 1.74283 0.610134 0.696745
7535 1 1 9.17854 0.625228 0.709162 0.681369
2020 1 1 10.8146 0.455078 0.584096 0.943026
696 1 1 11.7901 0.764703 0.256056 1.78093
383 1 1 13.1479 1.2181 2.18692 1.89465
640 1 1 12.8582 1.33613 0.896676 0.911798
7930 1 1 15.1774 17.7508 0.953769 0.95274
554 1 1 16.7223 18.4221 0.173116 1.50251
7471 1 1 17.8686 1.88506 36.5591 1.63225
1198 1 1 0.129339 1.56921 1.08223 0.635662
576 1 1 1.15893 1.40466 0.42469 2.96963
115 1 1 18.4928 0.792671 37.5634 0.807804
816 1 1 1.95522 3.44933 1.27142 1.45234
6995 1 1 4.40949 2.29738 1.84422 0.39036
2126 1 1 5.36365 2.05021 2.11377 2.18047
172 1 1 5.19584 1.79876 37.4556 0.450704
5756 1 1 7.18275 2.72169 37.1924 1.74772
6659 1 1 7.52279 2.52881 2.29526 2.6548
1206 1 1 8.81146 0.324968 1.98999 0.233117
7660 1 1 6.07583 2.85223 0.136358 4.11103
2305 1 1 10.5308 2.77679 0.0332731 1.27881
7725 1 1 11.5876 2.37522 1.31626 0.0352933
6691 1 1 11.5865 3.18235 0.130348 1.16926
1308 1 1 12.6353 2.37035 1.05586 0.932184
1269 1 1 14.6842 1.59744 1.89227 1.89019
6873 1 1 12.1016 1.90376 0.263093 2.76506
7830 1 1 13.6455 0.735944 1.26085 0.950475
7423 1 1 13.6972 1.8593 1.42884 1.60982
1344 1 1 15.4836 2.49603 0.781027 3.41197
7998 1 1 16.9997 2.24054 1.64014 1.21253
18 1 1 17.8534 2.81726 0.836137 3.45504
47 1 1 0.290756 3.82767 1.02975 0.200983
366 1 1 1.08996 4.24683 0.239517 5.52148
1481 1 1 0.97052 2.06852 1.85217 1.04368
7456 1 1 2.41013 4.34903 1.85161 1.36536
7697 1 1 1.14862 3.79419 1.55559 2.14288
402 1 1 3.69674 3.96299 37.5141 0.571215
879 1 1 4.68244 2.7341 0.0953895 1.14912
7667 1 1 6.81755 3.83855 36.9487 2.65456
464 1 1 8.00992 4.99204 0.14168 0.348229
543 1 1 9.9094 4.57821 37.0945 1.13142
2348 1 1 9.30528 3.76897 36.3039 1.10467
7010 1 1 13.4493 3.37617 1.29632 0.365362
73 1 1 11.6332 4.70677 0.390851 0.828664
151 1 1 17.0547 3.60226 0.788299 1.01082
1315 1 1 15.5658 2.85951 37.2493 2.23659
6648 1 1 18.8109 2.54711 0.954255 2.43473
762 1 1 18.2025 5.1014 0.061926 1.09322
791 1 1 0.521104 4.46255 36.6055 0.870262
7980 1 1 0.683222 4.75555 1.46921 0.891126
802 1 1 1.585 4.92188 1.11922 0.715818
7879 1 1 4.18764 5.11263 0.622347 0.0563878
7631 1 1 4.43465 4.13376 0.758417 0.391941
548 1 1 5.93755 6.15058 1.16379 0.38189
217 1 1 7.20878 4.33379 0.422661 1.36535
1076 1 1 7.59935 4.97146 1.17438 0.725262
945 1 1 7.47194 6.08753 0.394924 0.992822
697 1 1 9.11498 6.27387 37.4348 1.4699
1330 1 1 11.4321 6.34836 0.486772 0.119919
1380 1 1 14.4706 4.91556 37.4481 1.07169
7911 1 1 15.5268 4.68448 0.987882 2.14471
2160 1 1 16.486 5.86178 37.4278 4.29921
7937 1 1 17.4739 6.3174 0.604874 1.64083
1713 1 1 17.244 5.09577 37.2566 3.97103
924 1 1 0.319986 7.8237 0.971438 0.258948
34 1 1 0.00526813 6.35598 0.738604 0.529391
6762 1 1 1.3674 8.07153 0.886635 0.889221
1158 1 1 2.16354 5.81904 1.05562 3.57387
997 1 1 3.34568 6.0705 0.685521 1.04786
645 1 1 3.77035 6.35956 37.4745 0.556747
930 1 1 4.99233 6.66249 37.3378 0.327231
568 1 1 6.33614 7.18676 1.61591 2.35444
7748 1 1 7.43944 7.14158 1.2309 0.11236
7921 1 1 6.91956 5.91538 1.40095 0.687578
5854 1 1 7.70314 5.9446 36.4964 2.56291
6669 1 1 12.292 7.69528 1.24851 0.0397931
6497 1 1 11.5824 7.96995 36.8815 0.931487
7420 1 1 9.76475 6.93078 0.337824 0.495252
214 1 1 12.4371 6.85605 0.716971 0.126772
721 1 1 13.4017 7.90511 0.0708701 6.17698
181 1 1 12.3914 5.79028 37.6329 0.420198
193 1 1 13.2819 6.22608 1.35236 1.12938
7972 1 1 16.1366 7.40539 0.498312 2.43562
1359 1 1 15.7866 5.71252 1.21353 0.622621
7641 1 1 17.1239 7.34334 1.41999 2.10205
1318 1 1 0.887945 7.74573 2.37567 1.9353
6533 1 1 18.1949 8.64907 2.10766 0.5324
7351 1 1 2.49711 8.13108 0.19356 0.607926
7657 1 1 0.834148 8.37437 37.387 0.822232
925 1 1 3.48174 7.61428 0.0280837 1.10526
6235 1 1 5.33379 7.56456 1.17658 1.10275
331 1 1 4.64212 7.68313 0.184297 0.461246
7958 1 1 7.09813 8.49831 0.614957 0.70138
178 1 1 6.22499 8.41905 37.6656 3.15961
7335 1 1 8.02542 8.011 1.21367 2.30067
5813 1 1 7.12263 8.81505 36.7232 1.05624
6538 1 1 8.9748 7.56523 0.654466 0.716158
461 1 1 12.7579 9.29503 0.141603 1.61503
7348 1 1 14.9082 7.39848 0.704267 4.19945
6705 1 1 15.4979 8.26044 0.594289 0.830726
498 1 1 14.5579 7.42939 2.42249 2.45417
7851 1 1 15.7309 7.94233 1.64047 1.53237
7800 1 1 16.5438 8.21883 0.84652 1.01126
230 1 1 18.1436 7.60413 1.35309 2.9872
7734 1 1 18.0043 8.97216 0.0587872 2.06099
1637 1 1 1.14784 9.11301 1.71795 0.0856335
6987 1 1 5.17604 9.85439 1.1858 4.86169
7791 1 1 4.79773 8.24163 1.81558 1.16345
5753 1 1 6.79788 9.45111 0.697911 2.53023
6566 1 1 5.63022 10.6627 0.554974 1.14996
1790 1 1 7.67371 10.4425 0.622 0.958336
3250 1 1 8.80618 11.3476 37.4712 1.90907
1038 1 1 8.05445 8.41822 0.169626 1.15578
570 1 1 11.1742 8.938 37.4586 2.4213
7943 1 1 11.8549 8.99595 1.10244 1.97816
2177 1 1 10.3057 9.01851 1.15564 0.940832
86 1 1 14.168 10.9107 37.2566 1.78948
7979 1 1 13.8787 8.4232 1.94384 1.41792
79 1 1 15.5426 9.7792 37.4345 1.47614
6241 1 1 15.6714 9.94931 1.65703 3.06851
648 1 1 14.817 9.09487 0.811072 0.850996
736 1 1 16.7757 10.2289 0.490852 3.17063
1036 1 1 17.9063 10.0938 0.172385 1.09935
884 1 1 18.0881 9.30278 1.07148 5.19592
340 1 1 1.66279 11.6362 37.3529 2.38547
1350 1 1 1.41271 12.0023 1.52993 0.372899
6578 1 1 3.68865 9.12395 2.12817 1.21924
1172 1 1 2.66986 11.5761 0.784131 2.66779
639 1 1 4.36492 11.3525 0.145542 1.13785
7891 1 1 7.50677 12.0907 1.18764 0.480759
7002 1 1 10.7792 10.2363 1.36531 1.90609
1542 1 1 9.56936 10.6688 0.356805 0.913842
6536 1 1 11.0025 11.4086 0.206797 4.39762
7156 1 1 13.2059 11.5081 1.01493 0.428744
7452 1 1 14.1789 11.1353 0.664053 0.458155
7635 1 1 15.0601 10.1501 0.694076 3.48498
379 1 1 16.4235 11.2526 0.592917 1.10773
1074 1 1 17.5612 11.3125 0.244606 1.26664
7836 1 1 0.616576 11.2314 0.260517 2.92809
7863 1 1 1.79407 13.2889 0.416544 0.30785
7446 1 1 18.5181 11.9136 0.525352 2.11757
6646 1 1 2.29185 12.4772 0.855682 2.34028
8000 1 1 4.76476 13.2311 1.04148 2.80484
7056 1 1 3.63901 12.6079 0.979884 0.64362
7621 1 1 4.58017 11.9702 1.01955 2.63296
6252 1 1 5.67031 11.7578 0.769931 0.681981
532 1 1 6.44253 10.1922 36.5555 1.32398
7065 1 1 6.52044 11.4955 0.159188 1.10291
7457 1 1 10.1133 11.4049 1.14498 2.18581
1178 1 1 9.84074 13.0392 1.73583 2.11664
7704 1 1 10.6558 12.7164 2.36786 1.26611
6699 1 1 13.3228 12.5421 1.5012 0.113071
1976 1 1 13.9992 12.183 0.166248 0.450865
57 1 1 15.8963 12.4137 0.310959 2.14716
234 1 1 16.7614 12.0506 1.29633 3.29604
7189 1 1 16.7722 12.2524 37.3283 0.210475
7847 1 1 2.83188 14.142 0.39688 1.27868
6243 1 1 4.14981 14.0723 0.0341394 0.550984
7051 1 1 3.76907 13.4679 1.83175 0.810781
7610 1 1 5.74069 13.9795 0.939222 0.976953
1081 1 1 8.20815 12.9202 0.568514 1.11021
1144 1 1 7.19388 13.2551 2.06811 1.95919
6898 1 1 6.89204 13.2336 1.0592 1.56113
67 1 1 9.05178 12.5033 1.24048 1.36415
38 1 1 9.60557 12.9436 0.415793 0.599167
377 1 1 13.1578 13.4699 1.10385 1.54237
501 1 1 14.2326 13.1913 0.275761 0.27472
7826 1 1 17.2033 13.0463 0.203534 4.95163
7483 1 1 15.6323 13.5526 0.832602 0.332722
7052 1 1 17.6402 14.7117 1.43082 0.172388
579 1 1 18.1982 13.7974 0.786956 1.23367
634 1 1 0.718757 13.2879 0.491212 0.873597
962 1 1 2.6604 14.0334 1.43038 2.21375
704 1 1 1.7138 15.9003 0.569049 0.668622
1529 1 1 3.72535 15.1217 1.00962 2.44661
6321 1 1 4.89013 15.2842 1.10626 4.39084
203 1 1 4.52591 14.1859 1.1266 0.0986716
154 1 1 6.10255 14.5594 37.1713 3.16479
734 1 1 7.4393 15.6261 0.608375 0.183996
6379 1 1 7.41113 14.3454 1.44768 0.677286
1908 1 1 10.9161 15.2488 0.90707 1.27297
7569 1 1 8.56269 15.3878 1.11527 0.791267
227 1 1 11.02 14.8852 2.43116 1.38923
1134 1 1 11.4677 16.0854 0.88716 1.24602
22 1 1 12.0252 15.9851 2.07061 0.502507
1143 1 1 14.6724 14.688 1.21117 2.59372
1474 1 1 15.7284 14.6718 0.839387 3.0834
7548 1 1 16.6479 14.1644 1.24176 0.778582
668 1 1 15.9343 14.6044 37.5048 5.41969
559 1 1 0.741017 15.3889 1.14018 7.88738
2134 1 1 2.03291 17.1287 37.1778 1.35175
311 1 1 2.44093 16.7578 0.603341 1.78965
7934 1 1 3.37927 16.3959 1.13949 1.54402
439 1 1 3.59879 16.374 2.30546 0.34328
7767 1 1 5.89913 16.0243 36.9091 4.29741
399 1 1 4.05861 17.1003 1.6803 0.669396
7214 1 1 5.83949 15.2113 0.549406 1.75076
7180 1 1 6.62737 15.2775 37.6091 1.20952
6835 1 1 5.99391 17.498 1.11401 4.57825
7206 1 1 7.79978 16.6591 37.6151 2.86267
7616 1 1 9.2052 17.9753 36.7729 2.55586
841 1 1 9.18514 17.343 0.94073 2.2045
7736 1 1 10.0325 16.6028 37.4554 0.362747
7779 1 1 11.3118 17.147 1.16888 0.270258
2343 1 1 12.2073 16.3571 37.6197 1.38259
1916 1 1 13.0597 16.9105 37.5515 4.79281
6913 1 1 15.4714 15.7372 1.41875 1.51445
2038 1 1 15.8597 16.078 37.6063 0.736469
7855 1 1 16.7343 15.0534 2.06094 2.95582
1042 1 1 17.0509 16.4492 0.788718 2.43808
7999 1 1 18.4924 16.4437 37.2923 0.91562
1569 1 1 18.634 17.055 0.514885 6.60086
7265 1 1 3.15135 17.6345 1.36994 1.57408
332 1 1 3.36854 17.7287 37.4704 1.74583
6777 1 1 2.44918 18.2074 2.16956 0.220019
6866 1 1 6.33434 0.587957 2.02594 0.64126
7267 1 1 5.28882 18.509 0.849059 1.02865
1729 1 1 6.72792 17.482 2.00947 1.83882
43 1 1 6.4132 18.6318 1.18363 0.314375
7581 1 1 6.85551 18.0988 37.3733 3.01329
7678 1 1 7.55044 0.152283 1.69285 0.359241
1895 1 1 7.03688 17.891 0.861615 2.12879
708 1 1 9.88456 18.7525 1.0472 3.26195
7961 1 1 10.4939 17.7741 0.996518 1.608
7705 1 1 12.4997 17.4362 1.11315 3.28765
356 1 1 12.3026 17.9024 0.200027 2.10528
6636 1 1 14.6826 17.2836 37.4611 1.26188
343 1 1 14.0889 17.392 0.859152 0.597108
6723 1 1 16.1981 17.076 0.986478 0.736454
7088 1 1 17.9575 17.8007 37.4762 2.79636
3499 1 1 17.2031 0.94136 1.17853 0.0355364
7261 1 1 0.133486 17.6659 1.14152 1.72107
489 1 1 2.26599 0.718173 3.16979 1.02014
1168 1 1 4.14196 0.943563 2.74139 2.07385
445 1 1 4.76855 17.719 1.89243 4.25419
1930 1 1 4.42972 18.2786 3.93557 1.94226
1257 1 1 5.0707 0.260111 3.42152 3.53908
497 1 1 6.17083 0.635576 3.10341 4.46697
89 1 1 8.12848 0.828505 3.71724 0.52521
1208 1 1 7.15947 1.15825 2.466 0.639773
7785 1 1 8.20583 0.974984 2.39801 0.44395
505 1 1 11.3376 1.27903 2.4649 0.788325
7745 1 1 9.87022 0.431227 2.47178 1.64729
1339 1 1 10.8163 1.26278 1.49679 2.71304
677 1 1 11.6906 1.19239 1.22373 1.66042
700 1 1 12.9294 0.167104 2.38314 1.26079
31 1 1 15.8483 1.86949 1.45535 1.38079
7478 1 1 15.0925 18.5422 1.98618 5.43365
787 1 1 15.3799 0.695482 1.29802 0.541759
351 1 1 17.2893 0.623086 3.27468 1.1754
7647 1 1 17.7012 0.254785 1.95387 2.40096
1718 1 1 0.223293 2.02231 3.156 0.213584
1766 1 1 2.09084 1.80417 2.19872 1.9923
547 1 1 3.24172 2.20411 1.69423 5.74651
936 1 1 3.15685 1.0994 2.38747 1.25453
2026 1 1 5.18867 1.46504 2.93518 1.25998
569 1 1 4.64164 1.2866 1.17724 1.50219
566 1 1 6.72509 1.61921 1.44614 0.948747
633 1 1 7.57281 1.26963 1.06197 3.84682
886 1 1 8.21233 2.69011 3.18931 1.50808
593 1 1 10.5849 2.22363 1.18148 0.602509
173 1 1 9.4769 1.12351 1.56056 0.92008
7332 1 1 8.27383 3.31677 2.35247 0.773703
21 1 1 12.1627 1.82696 1.9496 2.21484
7155 1 1 12.9432 2.5595 2.70976 0.904508
7669 1 1 15.8403 2.21014 2.47449 0.992784
1020 1 1 14.3184 2.09512 2.98522 1.20302
859 1 1 15.238 0.778962 2.30219 0.850186
7549 1 1 16.673 2.69863 3.07819 0.615176
1348 1 1 17.535 2.39201 2.54001 1.33889
7440 1 1 18.7476 1.60121 2.07251 2.34712
7903 1 1 0.323081 3.53252 2.59792 0.830683
7795 1 1 1.59412 6.53827 1.90633 1.15471
7284 1 1 4.24062 3.47504 3.06316 0.412086
6767 1 1 4.99505 4.38374 2.79789 2.26213
835 1 1 5.71326 3.58306 0.696239 0.291901
2824 1 1 4.75498 4.17113 1.76855 0.612726
7718 1 1 5.03279 3.2473 2.16398 0.705472
7653 1 1 6.63255 3.48813 1.11946 0.572151
7215 1 1 6.41923 4.08796 2.1049 0.513057
623 1 1 7.37605 3.58043 1.84029 0.984129
1416 1 1 8.06052 3.57109 0.784523 0.687338
7666 1 1 9.58953 3.28241 3.26582 1.09667
492 1 1 10.7434 3.75107 2.58086 0.974563
7387 1 1 11.1874 3.72121 1.37133 1.15554
6541 1 1 14.9267 2.72573 2.42576 1.52916
7246 1 1 16.0187 3.29898 2.54851 0.0447182
7938 1 1 16.9154 3.94125 2.32505 0.601145
651 1 1 16.2326 3.35505 1.20668 3.57336
7844 1 1 17.0057 4.84146 0.830266 1.54409
6975 1 1 1.09922 6.49456 3.37893 0.767085
5621 1 1 1.06063 4.42597 2.43486 1.52328
6396 1 1 1.03457 5.50163 2.43112 0.363152
7659 1 1 2.45554 5.91282 1.96214 2.59315
1237 1 1 3.76766 4.78206 1.54388 3.44731
15 1 1 3.99064 5.73608 2.49 0.748391
7251 1 1 4.9185 5.26476 2.10783 1.73287
7924 1 1 5.45848 5.23208 3.62973 1.02742
661 1 1 6.539 5.12512 3.57222 0.392558
7532 1 1 7.047 5.31167 2.51254 0.450863
585 1 1 7.39105 4.4335 3.25909 2.12168
934 1 1 8.71885 4.11588 2.9574 0.873265
6703 1 1 9.38682 4.00509 1.30915 4.3187
1369 1 1 10.4426 6.25073 1.05583 1.65322
91 1 1 11.609 4.5787 2.97639 1.46923
528 1 1 10.6247 5.85595 2.84388 0.791786
985 1 1 11.9251 5.64114 1.76177 0.782033
387 1 1 14.0123 4.63691 2.22421 1.40677
1473 1 1 14.9195 5.04872 2.13242 0.544126
271 1 1 14.1412 5.59809 1.59506 0.849779
511 1 1 15.1668 3.94359 1.78152 1.02318
966 1 1 18.0902 4.04807 1.16293 0.692039
914 1 1 16.2291 4.66912 1.84537 2.90995
7432 1 1 18.4865 5.42797 1.24928 1.58864
7966 1 1 2.59193 6.70139 2.85219 2.01417
206 1 1 18.1281 6.62532 1.91611 2.52564
7967 1 1 2.83837 6.98394 1.02088 3.45921
442 1 1 4.13225 7.32852 3.4285 1.85467
7944 1 1 3.79807 7.79586 2.23212 1.90512
7803 1 1 5.35724 7.08156 2.22398 4.25584
1177 1 1 5.74801 6.36281 3.31983 0.542803
6136 1 1 6.85046 6.34226 2.75474 3.07037
7663 1 1 8.74283 5.40586 1.1825 4.66354
7138 1 1 7.81772 7.19916 2.2343 2.39118
7904 1 1 9.13371 6.49443 1.52134 4.89102
1051 1 1 8.59735 5.24876 2.68331 4.94996
7422 1 1 12.0503 6.6161 3.65297 1.50433
469 1 1 11.6672 6.04703 2.88216 0.46022
7611 1 1 12.6293 5.14949 3.59447 0.0417042
188 1 1 11.6458 6.58376 1.60988 2.58318
1329 1 1 13.1498 5.18041 1.40043 3.50383
5812 1 1 14.6164 6.30293 4.02109 1.36398
35 1 1 15.7007 6.74828 2.04669 1.75543
1377 1 1 13.4729 5.57023 2.49866 2.28305
2197 1 1 15.6258 5.47812 2.70774 1.05943
7544 1 1 16.8454 5.67085 3.08518 1.40902
223 1 1 16.1671 6.74786 3.05476 1.82045
72 1 1 0.673321 6.80303 2.3434 0.628306
75 1 1 18.6499 5.54927 3.04757 3.07918
2320 1 1 18.5398 7.73655 2.60406 1.28074
5817 1 1 3.36778 6.54173 1.84535 0.430313
7322 1 1 7.26606 8.45168 1.86035 0.722075
626 1 1 6.47791 7.58411 2.85934 0.605799
7738 1 1 5.0758 7.8292 2.80841 0.145479
1648 1 1 8.40511 8.31464 2.09536 1.90702
571 1 1 9.23373 8.69745 2.66541 1.38032
5690 1 1 10.1086 7.82386 0.929647 1.28443
2244 1 1 12.9856 8.91611 1.34969 3.25712
122 1 1 9.88741 6.26767 2.16056 0.229003
1441 1 1 13.6623 7.64288 2.77813 1.35092
276 1 1 15.0466 6.50784 3.00733 0.723076
108 1 1 16.8303 8.90274 2.15211 0.795309
186 1 1 18.5971 8.71533 3.44423 2.71471
1314 1 1 0.647602 9.53975 0.99224 0.69085
1005 1 1 3.94828 10.0781 2.58595 0.822355
7326 1 1 5.95838 8.95103 2.16722 1.12233
1681 1 1 4.83153 9.24834 2.16278 1.92266
6874 1 1 6.69552 10.576 0.319948 6.01237
1301 1 1 6.65359 9.68078 2.791 0.24225
10 1 1 5.58924 10.1866 2.92453 0.768704
7459 1 1 7.9204 9.55907 1.57746 1.33821
765 1 1 9.02192 9.96915 2.31079 1.61966
1475 1 1 8.79823 9.72657 0.987226 1.06633
672 1 1 10.2519 8.83819 2.56912 2.27197
6896 1 1 10.637 11.4528 1.92788 0.583706
7538 1 1 11.5414 10.6103 2.20496 5.09365
1193 1 1 12.5181 6.6117 2.48902 3.6732
7185 1 1 14.956 8.76915 1.87257 1.11752
1906 1 1 13.9077 9.65905 2.36781 3.29647
1426 1 1 13.3845 8.92655 3.60759 2.58504
1478 1 1 15.9143 9.21041 2.73551 0.555137
6561 1 1 18.0774 9.82208 2.89334 2.3318
84 1 1 17.5383 10.0934 1.69351 0.73763
1093 1 1 0.727568 11.2887 2.63081 1.42353
300 1 1 0.72479 9.88357 2.20148 0.639076
877 1 1 18.5395 10.4506 1.1145 2.73365
970 1 1 4.67828 11.0472 3.16429 1.67462
7482 1 1 2.51304 9.41205 3.1942 0.243775
7805 1 1 3.24688 11.1362 2.00159 0.378259
1211 1 1 6.43362 10.2311 1.95157 3.46456
290 1 1 6.793 12.1382 2.46156 0.309006
7643 1 1 7.65064 10.9968 2.11925 2.02878
691 1 1 7.48258 9.095 3.10918 2.73667
955 1 1 9.07996 10.9473 1.467 2.68568
1224 1 1 11.6815 11.6029 0.884946 0.478651
232 1 1 12.6187 11.681 2.74378 2.1159
7983 1 1 13.6834 10.7644 2.5784 0.978039
296 1 1 14.1241 11.0352 1.61324 2.22266
610 1 1 12.5143 9.98399 2.34365 0.982174
2017 1 1 14.7803 10.5394 2.69183 0.900868
712 1 1 16.5311 10.6986 1.62355 3.09872
7470 1 1 16.7864 11.7695 2.37674 0.408987
146 1 1 18.5068 9.84463 1.9483 1.87184
2662 1 1 18.1699 11.8572 1.45839 0.433062
1234 1 1 17.6429 12.2494 2.92501 0.892355
7474 1 1 2.32221 12.729 2.84241 0.119307
967 1 1 1.30101 12.1213 3.68135 1.12043
7060 1 1 3.99121 11.94 1.98912 1.14951
369 1 1 3.0013 11.0738 3.09601 0.877404
7249 1 1 3.70536 12.2612 2.88294 0.735824
325 1 1 6.47109 12.2648 1.55972 2.07472
773 1 1 4.5913 12.8302 2.01896 1.87636
453 1 1 6.9501 13.8693 3.01061 0.841551
627 1 1 8.74517 13.0272 2.28929 0.958363
7004 1 1 10.0698 13.2922 2.96245 2.92626
1103 1 1 10.4157 13.7849 2.23167 1.00535
738 1 1 13.8937 11.9876 2.28738 2.80348
286 1 1 12.2631 13.1666 1.53306 0.573541
574 1 1 14.6861 12.4288 1.54773 1.90574
1107 1 1 12.4945 11.0386 1.6555 0.818361
7512 1 1 15.4583 11.9434 1.06725 0.969446
973 1 1 15.8812 11.6882 2.81794 1.42506
7772 1 1 1.32364 13.1124 1.3748 0.367932
163 1 1 2.90794 13.3446 3.41771 0.62444
1486 1 1 3.78926 13.8967 3.79135 2.49134
7085 1 1 4.05481 13.2207 2.87746 0.424096
584 1 1 5.28556 13.8463 2.4248 0.58641
255 1 1 5.82439 13.0273 1.86121 2.23667
688 1 1 7.40996 12.9576 3.90924 1.82925
1128 1 1 7.9532 14.2177 4.36716 4.70355
7139 1 1 8.16967 14.1769 2.28134 3.41196
1912 1 1 8.37534 14.1823 1.18015 0.744842
1139 1 1 9.41954 14.2912 3.4405 1.66085
7545 1 1 10.7862 13.7547 3.6207 0.874047
423 1 1 12.1775 13.441 3.23658 0.611144
6686 1 1 9.64925 14.118 1.16391 0.649553
7834 1 1 13.6764 14.9435 1.55787 2.5865
6824 1 1 13.9615 14.0803 1.89053 1.19298
7040 1 1 12.7726 13.7866 2.46732 1.8084
6599 1 1 15.2686 13.5453 1.76712 0.578339
389 1 1 14.693 14.4685 2.62434 1.47934
375 1 1 17.016 13.1014 2.59419 0.90556
7867 1 1 18.3181 12.9169 2.16599 1.45553
1567 1 1 0.361153 12.7586 1.36638 1.22463
2358 1 1 18.133 13.9607 2.56693 1.20073
1445 1 1 1.77036 15.1748 1.9256 0.305833
7555 1 1 2.45565 16.2755 1.53948 0.59387
757 1 1 2.73382 15.0965 1.07952 4.92326
1485 1 1 5.00577 16.1274 1.80609 2.2137
815 1 1 6.13108 14.8067 1.69068 0.140061
7926 1 1 6.97345 15.3788 2.14552 0.178538
749 1 1 7.95855 15.1011 2.04151 2.23801
6851 1 1 9.3254 13.9856 2.36815 1.09941
872 1 1 9.09144 15.0411 2.06495 0.402529
7700 1 1 8.37603 16.5219 2.9118 1.5949
7489 1 1 13.4009 15.57 2.87614 0.33675
256 1 1 10.7619 15.9541 2.01998 4.62057
976 1 1 12.014 14.2335 2.19906 0.478394
381 1 1 12.8709 15.1946 4.37781 0.747043
273 1 1 15.9314 16.0092 2.58894 2.63916
7787 1 1 16.5047 15.5184 0.793531 1.12558
2367 1 1 18.0526 16.2219 0.735301 2.53331
5999 1 1 1.12153 16.9295 1.29754 0.895234
7887 1 1 18.7785 15.0399 2.55415 3.61602
670 1 1 0.565852 16.4474 4.61217 2.91302
7968 1 1 1.70739 16.868 2.68263 2.11801
1509 1 1 0.752184 15.9861 2.03137 1.49744
6459 1 1 2.80704 17.2157 2.27535 0.556297
1446 1 1 3.86287 17.4613 2.5343 1.50339
1328 1 1 5.15998 16.6641 0.878222 2.01434
7613 1 1 7.2526 16.7089 1.54613 2.18674
3576 1 1 6.33674 16.145 1.25045 2.22806
292 1 1 7.83999 15.6889 3.32426 0.870527
1582 1 1 9.54758 16.4397 2.37616 1.34272
814 1 1 11.0665 17.6188 2.08626 0.241928
7620 1 1 8.56926 16.7841 1.88068 3.10357
7230 1 1 10.1729 17.1827 2.46891 1.1616
1505 1 1 10.4357 17.5581 3.61039 0.289669
7149 1 1 13.4469 16.5877 2.16206 0.77562
781 1 1 11.2028 16.8359 3.51048 0.484933
2661 1 1 13.9197 15.9646 1.54638 0.637918
2150 1 1 15.2896 16.8025 1.26249 1.30364
629 1 1 17.7805 16.0083 2.04434 0.40247
1928 1 1 18.4985 16.7928 1.86072 0.193983
2033 1 1 17.3871 17.0478 1.97497 0.38534
7188 1 1 1.6314 0.0293007 3.52755 0.195348
686 1 1 0.254195 16.497 2.82781 2.99081
7585 1 1 1.51469 18.0465 2.63719 1.01462
1140 1 1 3.31058 18.6175 2.65072 0.302167
1453 1 1 5.17534 16.7366 3.24037 0.910009
487 1 1 5.79634 15.7485 2.64272 1.43644
7754 1 1 4.99997 18.1139 2.81774 2.74041
605 1 1 8.39682 17.8805 1.34668 2.8273
7996 1 1 9.47976 18.0552 2.12825 2.12321
829 1 1 8.47082 18.6868 0.5578 3.39759
450 1 1 10.363 18.5093 2.78209 0.707212
6027 1 1 11.2036 0.613537 3.54629 1.17933
7987 1 1 10.7558 0.174479 1.69905 2.60164
6673 1 1 11.908 18.437 1.94072 0.822048
1785 1 1 13.3639 16.7826 3.27085 2.63109
2106 1 1 14.212 0.260983 2.12217 0.438581
1110 1 1 14.5247 17.635 2.04755 0.536778
1200 1 1 14.8757 18.0109 2.97575 1.07763
129 1 1 16.3872 18.6389 1.61539 1.21332
788 1 1 17.7709 17.5397 0.901273 2.16283
194 1 1 18.4974 17.9304 1.98265 1.37964
310 1 1 18.7503 1.17931 3.85389 3.75242
915 1 1 1.79759 1.1461 4.4321 1.66373
7122 1 1 2.81375 18.4464 3.92351 2.44256
175 1 1 4.17164 0.370379 1.82287 2.6599
1367 1 1 3.69398 0.438644 3.91502 1.05713
7123 1 1 5.56061 1.70751 4.18457 1.67373
1331 1 1 6.16516 1.48698 2.45184 1.90253
7762 1 1 6.41421 0.168564 4.96337 3.85301
293 1 1 7.60019 0.59849 4.68409 0.47398
7964 1 1 8.39611 1.2108 4.63353 5.18722
1658 1 1 9.19047 1.0503 2.98706 1.77478
1749 1 1 10.1143 18.7821 3.71188 1.11174
671 1 1 12.103 1.33891 3.26261 1.08465
1213 1 1 13.1789 1.59899 3.10678 0.387776
1704 1 1 12.127 18.4974 3.55577 1.44772
180 1 1 13.8867 0.850888 2.85678 0.730398
906 1 1 14.1152 0.0934433 3.54029 0.492806
982 1 1 15.0813 1.34474 3.40019 1.15359
427 1 1 16.0339 0.0867722 2.56203 2.1893
7914 1 1 18.0697 1.70415 3.23131 0.698234
1205 1 1 17.9678 18.2061 4.38442 3.17039
1265 1 1 0.3616 2.02574 4.5813 0.474311
1714 1 1 1.21312 1.97318 3.8143 5.34056
1373 1 1 2.90749 3.10678 4.67293 1.69054
480 1 1 3.34826 1.40236 3.46914 1.67105
656 1 1 3.64939 2.22561 2.71295 1.21157
56 1 1 6.34945 2.42933 4.05875 0.159059
7300 1 1 6.73074 1.47749 3.6026 1.03573
7896 1 1 6.71856 2.37897 5.16815 1.79362
1543 1 1 5.79938 2.95499 3.13924 1.09204
6986 1 1 6.6239 2.30298 2.95098 0.112737
96 1 1 8.74673 1.75168 3.64998 0.346471
1852 1 1 7.71122 1.69712 3.3115 5.29399
385 1 1 8.67202 2.06118 2.33725 1.73223
94 1 1 9.478 2.3627 3.41718 1.7372
824 1 1 10.5861 2.26985 2.53753 0.191493
7989 1 1 11.8845 2.21735 2.87869 0.602189
553 1 1 11.9458 1.97922 4.75856 0.656605
100 1 1 12.8093 1.746 4.09325 0.715436
742 1 1 14.0641 2.45648 4.45346 1.37379
946 1 1 13.8495 1.55989 3.8538 3.22875
1413 1 1 15.3379 3.43878 3.75214 0.684332
314 1 1 16.7922 1.52621 2.67234 2.65993
874 1 1 18.3939 2.8774 2.96633 0.137476
1279 1 1 2.24316 3.56522 2.80756 0.730661
109 1 1 3.18256 3.39859 1.86588 0.643778
3 1 1 2.94362 4.23081 3.29409 3.16159
1202 1 1 5.07848 2.50223 3.8294 2.21769
527 1 1 5.41018 3.33821 4.26293 0.101491
1376 1 1 6.10608 4.10777 3.48809 1.73265
479 1 1 7.29487 5.36397 4.68345 1.45579
1378 1 1 8.33119 3.74687 3.79314 0.390263
2736 1 1 9.20676 3.32698 4.36314 2.74915
3337 1 1 9.74127 2.77071 2.05496 2.16882
7625 1 1 10.1593 4.81089 2.06951 2.63484
1664 1 1 12.0754 3.1973 2.74357 1.14974
685 1 1 12.9058 3.53136 2.32743 4.02821
7250 1 1 13.8042 2.79634 3.33674 0.456073
602 1 1 16.5066 3.46757 3.91867 3.21629
7950 1 1 17.7056 2.29693 5.00834 1.36332
1239 1 1 17.8536 3.68469 3.18015 1.17918
155 1 1 0.18883 3.37928 4.35809 1.40338
6152 1 1 0.782614 3.66874 3.56751 2.48018
7366 1 1 18.7967 4.71644 4.59034 0.608146
7841 1 1 18.4469 4.51141 2.22628 0.446338
1596 1 1 1.99924 6.08737 3.55194 1.62224
1717 1 1 2.42403 5.14431 2.83034 1.93507
158 1 1 3.09758 5.9201 3.25058 0.0497643
1883 1 1 4.82594 6.18461 2.78879 2.03687
580 1 1 3.97711 4.68233 3.28933 0.206789
5739 1 1 8.6751 4.86014 3.72983 0.145064
890 1 1 10.0844 4.99385 3.26157 1.13545
2103 1 1 9.9491 4.02291 3.89479 0.985689
140 1 1 10.9534 5.91684 4.46873 3.34317
281 1 1 10.9643 4.90695 3.82376 0.323036
1262 1 1 12.3382 6.81676 4.81751 1.76375
446 1 1 13.6994 4.52296 4.39792 2.41494
2075 1 1 14.1377 5.48586 4.23351 1.08727
581 1 1 14.5848 5.20423 3.06306 1.20348
7468 1 1 15.578 4.39571 2.70034 0.897985
2432 1 1 15.7716 4.44498 3.892 1.96936
1336 1 1 16.9486 3.95801 4.88407 1.32417
148 1 1 17.3103 4.73369 3.31993 2.47037
190 1 1 17.8627 4.15817 4.15758 0.455229
3586 1 1 17.7461 5.48712 3.86061 0.0535608
7683 1 1 1.71491 6.53305 4.4803 2.40499
238 1 1 3.12231 5.82639 4.77603 1.22427
729 1 1 5.09235 6.11079 4.1683 1.98254
1754 1 1 4.25633 6.11944 3.66655 0.881853
440 1 1 6.73971 6.12051 3.69297 1.77625
2397 1 1 7.91984 6.02008 2.14569 0.794252
1405 1 1 6.48712 6.89868 4.23976 1.53932
1194 1 1 7.77129 6.28175 3.58416 1.80266
1466 1 1 7.26501 7.13286 3.52878 3.80163
177 1 1 9.29803 5.81933 3.80227 0.180315
575 1 1 10.0582 6.54739 3.89312 1.76981
488 1 1 11.7392 7.66065 4.13481 1.62021
1759 1 1 11.351 6.85252 5.42859 0.226198
6463 1 1 12.397 8.0122 3.4969 3.52197
591 1 1 15.4999 5.10363 4.70914 1.3753
7273 1 1 17.045 7.04265 4.65053 1.06469
3565 1 1 15.946 5.95884 4.00027 4.15731
444 1 1 0.114761 6.81375 3.30659 2.76531
481 1 1 0.599368 6.27059 4.29607 3.24403
1942 1 1 0.795232 8.72818 2.6624 0.09744
1562 1 1 0.71838 7.65062 3.50964 3.02137
134 1 1 1.53794 7.87217 4.05266 0.123997
875 1 1 1.88038 7.57318 3.11502 0.136945
983 1 1 4.32744 7.11892 4.39947 0.440306
131 1 1 3.08186 8.15533 3.71557 1.13284
7862 1 1 5.53 8.14263 4.09419 2.7854
541 1 1 6.49799 8.73737 4.2018 2.45461
1802 1 1 8.65984 8.71224 5.05333 0.414032
557 1 1 10.7314 7.09561 4.50124 0.905811
1069 1 1 11.0648 8.25701 2.85131 0.323977
1781 1 1 9.75685 7.61815 4.54944 2.26649
1422 1 1 13.3934 6.37202 3.20996 2.22807
1833 1 1 14.3861 8.48875 3.61088 0.632564
960 1 1 16.0201 8.41896 3.52553 1.08151
305 1 1 16.1415 7.33085 4.12999 4.33538
1183 1 1 17.6581 8.09756 2.6507 3.53655
1000 1 1 17.9573 7.67053 4.25529 1.13424
1709 1 1 18.4735 6.23068 4.58413 2.55425
2357 1 1 1.42899 9.87681 2.93204 2.90234
2110 1 1 1.06052 9.76762 3.92276 0.729737
1399 1 1 0.985695 8.69409 3.75428 2.84781
1113 1 1 1.981 8.74691 2.7192 1.11974
7845 1 1 0.836877 10.7782 1.1747 0.497174
114 1 1 3.17657 8.59015 2.86172 0.0972168
1917 1 1 4.4825 8.49718 4.30626 2.67222
1280 1 1 4.32192 8.65075 2.89651 2.93963
478 1 1 6.5045 9.71392 4.78602 0.113964
1415 1 1 6.30045 11.0875 2.97366 0.594274
378 1 1 8.74489 8.81418 3.60317 0.946842
374 1 1 8.36624 7.71013 2.93016 2.33906
7531 1 1 9.44077 9.72871 4.11658 0.367542
1460 1 1 12.2657 9.35197 3.40832 2.4241
641 1 1 14.7997 9.25372 4.69689 1.85071
6875 1 1 16.7968 9.10707 3.2401 2.42471
1870 1 1 18.6452 9.48172 4.4346 0.645991
6719 1 1 17.7487 10.271 4.4159 0.332524
1276 1 1 1.84022 10.7301 3.38743 1.60662
336 1 1 0.409864 11.9125 4.06198 1.29075
916 1 1 1.36529 10.5975 4.47827 1.53237
1863 1 1 2.40767 11.5346 4.59751 2.14479
2311 1 1 2.29941 9.84163 4.50899 0.66842
1728 1 1 3.89366 11.5601 3.91928 0.0187003
408 1 1 4.71579 12.098 3.25932 3.87338
1417 1 1 5.94239 10.6674 4.08589 4.11823
365 1 1 5.52627 12.0639 2.14963 2.25012
1465 1 1 7.14476 10.0225 3.92903 2.3925
1001 1 1 7.47517 11.4986 3.04106 1.12043
1046 1 1 7.64853 10.3642 3.11796 1.27965
277 1 1 9.95897 10.471 1.75317 1.34118
64 1 1 8.90835 10.5421 3.96885 0.239441
241 1 1 10.1347 10.3908 3.41915 0.326045
1017 1 1 11.2271 10.5112 3.34184 2.60304
7573 1 1 10.6499 9.68389 4.29689 0.538388
7739 1 1 11.5525 9.51066 2.62841 0.261833
433 1 1 11.699 11.9324 1.86215 1.85027
2062 1 1 12.3925 11.0812 5.23263 0.704363
1706 1 1 14.7819 10.3977 4.70347 2.23264
7444 1 1 13.1532 10.1264 3.81269 1.34351
386 1 1 13.5682 12.1365 3.58573 0.804443
1533 1 1 15.6531 10.1067 4.1646 1.72269
683 1 1 17.3107 10.5318 2.75253 0.694698
1965 1 1 15.0383 9.65928 2.36506 1.63759
1349 1 1 18.2944 10.9583 3.38694 1.45533
7350 1 1 0.172083 13.0289 4.0844 0.695445
7927 1 1 2.3679 12.7616 4.87562 1.67032
243 1 1 3.19844 12.3132 3.97245 1.6757
863 1 1 2.38945 10.332 2.21831 2.40028
1958 1 1 5.03543 13.1761 3.36383 1.593
344 1 1 5.81644 12.4682 3.07909 1.15951
216 1 1 6.47418 13.0091 4.14953 1.14464
1163 1 1 7.83463 12.6712 2.78944 3.20864
699 1 1 8.41608 11.7031 2.11459 1.27123
823 1 1 9.81799 12.5197 3.84563 0.958352
1545 1 1 9.05163 11.3869 4.66922 0.881812
1165 1 1 10.4536 11.5483 3.67658 1.65694
7984 1 1 11.3971 11.8779 4.51536 6.01008
6590 1 1 12.465 11.8195 4.08505 1.63938
6750 1 1 14.7132 11.7476 3.14576 1.17826
1187 1 1 13.6401 12.9637 2.75319 1.85039
1676 1 1 12.7903 12.6886 4.18787 0.743035
1087 1 1 16.7617 11.1322 3.56856 1.79042
1351 1 1 17.5779 11.6425 4.10045 0.201154
1528 1 1 18.5596 11.9048 2.60181 0.926869
1360 1 1 1.73785 14.0435 2.30087 0.86133
1116 1 1 2.21403 13.4646 4.07391 2.13776
6720 1 1 3.06794 14.0032 4.53052 0.709574
6563 1 1 1.61193 13.7388 4.83956 0.985553
1082 1 1 3.79758 13.1029 4.4237 0.517569
1526 1 1 4.5683 14.7741 4.38839 1.79452
7376 1 1 4.92378 13.4805 4.33412 1.3221
1448 1 1 5.47382 14.4383 3.39107 2.47789
1210 1 1 8.41427 13.4399 3.83006 2.4647
6683 1 1 8.45432 13.5606 4.97503 2.35799
7464 1 1 6.63145 11.683 3.71196 5.45433
7990 1 1 9.2438 14.8506 4.32822 0.323568
221 1 1 11.3798 11.423 2.94242 3.68146
1590 1 1 14.0301 14.0814 3.82097 0.555529
1147 1 1 12.7401 14.1279 3.99961 0.044509
7993 1 1 14.9894 12.8413 3.50421 0.944923
818 1 1 15.9932 12.9995 2.96704 1.08756
669 1 1 15.5021 14.0019 3.2011 5.49709
2798 1 1 16.2577 13.2213 3.96333 0.868826
259 1 1 18.3614 12.8811 3.17815 1.69912
1971 1 1 0.603984 13.3575 2.52102 4.37681
240 1 1 16.6381 12.4021 3.54566 0.806195
608 1 1 0.941456 14.0329 4.25351 0.775972
126 1 1 0.399111 15.9438 3.6759 3.01283
1282 1 1 3.01181 15.1956 2.05024 0.311272
2755 1 1 2.56446 14.9366 4.69116 0.577318
795 1 1 4.16194 14.7867 2.19203 1.51139
840 1 1 4.62138 14.9446 3.24338 0.809395
834 1 1 5.28553 14.9414 2.08343 3.88477
1337 1 1 4.83981 15.7701 4.19257 0.421685
684 1 1 6.42651 14.8226 3.17502 3.58922
504 1 1 7.58329 14.7823 3.43667 1.92919
902 1 1 6.52768 15.7808 3.66752 5.99735
391 1 1 8.67243 16.0607 4.03471 1.31552
452 1 1 7.74443 15.5369 4.34298 0.207305