ITEM: TIMESTEP
3900
ITEM: NUMBER OF ATOMS
8000
ITEM: BOX BOUNDS pp pp pp
0.0000000000000000e+00 1.8820720577620570e+01
0.0000000000000000e+00 1.8820720577620570e+01
0.0000000000000000e+00 3.7641441155241139e+01
ITEM: ATOMS id mass type x y z v_temp
7951 1 1 1.17128 18.57 1.67087 1.04584
328 1 1 0.052099 18.7265 1.27129 1.83346
1739 1 1 2.35407 1.54457 35.7314 2.07546
1573 1 1 4.21004 0.488643 0.614261 2.00663
1198 1 1 3.11171 2.10685 1.32783 0.423135
7166 1 1 8.15173 1.39485 35.8252 2.34288
7300 1 1 5.49563 17.6005 0.537807 0.182923
1328 1 1 5.88599 0.942937 0.61774 2.91557
1446 1 1 8.50102 1.19086 36.9176 1.45783
1140 1 1 10.895 0.149145 1.13951 1.38365
56 1 1 6.2055 3.73007 37.3202 0.478766
6855 1 1 9.66883 0.259353 0.469935 1.22557
7149 1 1 12.9262 18.6888 37.2649 0.708516
887 1 1 11.2862 18.4935 35.965 0.411964
7745 1 1 13.3167 0.0336944 35.6038 0.251799
801 1 1 11.6797 0.166178 35.0121 2.51356
1479 1 1 17.6291 1.16247 1.29255 0.578735
7301 1 1 13.6524 0.599758 0.05319 0.165063
1511 1 1 17.5777 0.123955 1.97029 0.370507
6839 1 1 16.6083 1.90104 36.1639 0.338088
1672 1 1 17.1806 1.89298 1.84506 0.911695
7088 1 1 0.306169 0.854813 0.218773 1.13806
1380 1 1 17.654 0.649638 36.9098 0.664008
7930 1 1 3.75162 18.5757 35.8381 3.61037
508 1 1 0.398308 1.64898 1.26122 1.08077
2026 1 1 3.90003 0.684537 1.7765 0.68621
1279 1 1 4.74484 4.55982 2.41486 1.27551
6494 1 1 5.4228 2.01779 0.21047 0.796823
7604 1 1 6.62678 2.17768 0.993037 3.20402
1266 1 1 7.47263 1.25443 1.46731 0.36782
324 1 1 7.4501 3.53599 1.09996 1.99897
7751 1 1 6.55022 2.01174 2.36372 1.35379
7564 1 1 8.54752 4.92811 0.661 0.139609
7653 1 1 6.2942 1.63649 37.0281 2.22688
6866 1 1 8.08296 2.28884 2.25727 0.343592
775 1 1 10.5661 1.50159 36.0546 3.29062
7283 1 1 9.17476 4.85346 36.2533 0.797902
3337 1 1 12.4027 0.933669 36.777 2.14711
446 1 1 11.4547 2.86973 36.1751 0.59499
350 1 1 13.1473 1.50426 0.169594 2.84812
6850 1 1 12.5434 3.23005 36.5256 3.99898
1183 1 1 16.4818 1.66541 0.815071 6.25394
1020 1 1 17.7567 5.45656 0.406848 1.11152
6845 1 1 18.5822 2.11996 0.43215 1.63607
7202 1 1 18.2068 3.41235 3.07733 2.26554
1045 1 1 2.79821 4.47124 1.47708 2.17093
1713 1 1 0.718021 0.756112 1.76035 0.331122
6006 1 1 2.09001 3.0223 1.23681 1.56967
7697 1 1 0.415658 3.93082 2.22794 3.49979
406 1 1 3.54411 4.43566 0.66502 2.49312
7612 1 1 7.24918 4.50368 2.07292 0.989067
1333 1 1 8.87379 4.49077 37.4757 0.255784
7625 1 1 7.24316 3.33109 2.115 1.08478
437 1 1 10.7501 2.19014 0.115721 1.10707
7032 1 1 10.3147 2.48236 1.12815 0.0790284
7392 1 1 14.5612 3.4331 0.860232 2.75223
5355 1 1 2.49614 3.49191 37.6589 4.69732
853 1 1 14.9976 5.07835 36.9336 1.64595
7595 1 1 17.071 3.59047 2.97444 2.48886
1037 1 1 0.453293 6.51618 1.39421 0.249759
6423 1 1 17.2665 4.32992 1.90892 1.19835
6875 1 1 16.8806 4.71271 36.5463 1.98451
6987 1 1 3.08138 5.82779 2.29104 0.25464
366 1 1 2.83618 4.92949 34.2652 0.99425
7718 1 1 3.57454 2.71934 2.64249 1.11165
6083 1 1 5.81015 4.61403 2.27083 2.02818
1310 1 1 2.15968 5.73424 2.79189 0.963599
1723 1 1 5.66325 5.221 35.225 0.513866
135 1 1 6.20396 7.74441 0.440398 3.0447
5799 1 1 9.4153 3.54451 3.75962 1.78727
217 1 1 5.65606 6.64886 3.78813 0.584821
2244 1 1 10.4893 3.25494 0.533575 1.38437
6581 1 1 9.02218 1.39924 2.89878 0.268121
7450 1 1 9.99901 4.54611 0.93602 2.36146
7155 1 1 13.6048 3.08737 0.472168 0.497627
6551 1 1 10.35 1.16549 1.00372 2.12091
7544 1 1 15.1633 4.89445 0.569652 0.908023
1377 1 1 14.7332 6.13032 1.61957 1.3359
223 1 1 15.1361 6.94887 1.93017 1.91179
7273 1 1 15.9826 5.00255 37.5293 2.76087
877 1 1 17.3971 3.38314 0.43721 0.48981
645 1 1 17.9185 7.81701 2.06333 0.21086
1427 1 1 0.316216 4.52725 37.2343 2.95582
1562 1 1 2.60587 5.41103 1.10258 2.04136
573 1 1 18.2274 6.74431 1.77986 0.905908
7956 1 1 6.02861 4.54561 36.1113 1.28018
6152 1 1 4.51214 6.06029 37.0045 0.607019
1224 1 1 9.84439 6.85211 1.23921 0.691237
1381 1 1 9.67405 3.26158 1.19673 3.36473
354 1 1 8.92311 4.31677 1.94179 0.220289
6996 1 1 9.2754 4.75963 2.97758 1.72499
7408 1 1 10.2147 4.13558 37.5781 3.58729
7466 1 1 11.5505 6.63528 1.82839 0.845171
973 1 1 10.7923 5.12621 0.574867 0.267256
6949 1 1 11.742 5.64329 0.578073 0.625362
1664 1 1 12.5791 7.09573 37.4347 1.95487
6997 1 1 12.6632 5.03463 0.630534 0.246313
6470 1 1 12.7223 5.19315 1.6474 4.4247
675 1 1 12.5543 6.92892 3.17908 3.77025
6044 1 1 13.3302 6.02117 2.87343 1.75842
140 1 1 15.9041 7.18798 2.9119 2.38043
276 1 1 13.6165 5.7277 37.344 1.05543
1537 1 1 14.2858 6.80251 2.66384 1.42145
371 1 1 15.7671 7.08014 36.4075 1.58286
7659 1 1 17.9233 5.65907 2.77103 1.77503
3092 1 1 14.856 7.44332 36.7901 1.10415
1757 1 1 18.0736 7.72335 3.67012 1.17251
7397 1 1 18.3979 9.91688 1.13864 1.63675
1360 1 1 18.6482 9.69642 2.60841 1.09806
7942 1 1 2.09748 7.98957 36.3781 0.360663
86 1 1 3.18697 8.47209 37.3807 1.0489
6578 1 1 4.97992 9.66373 2.69985 1.02712
6767 1 1 2.5596 8.85235 1.34943 0.537172
1415 1 1 4.68624 7.71221 35.3337 1.91436
6874 1 1 9.78398 8.0663 37.5254 0.897145
6933 1 1 8.16748 10.2236 0.389405 0.115204
7573 1 1 10.5603 8.50869 0.734198 0.312072
5690 1 1 10.7278 7.87326 37.4278 0.806546
610 1 1 9.41335 9.92312 2.64314 0.636154
5857 1 1 16.8142 8.66069 1.68682 1.2069
1399 1 1 18.4067 12.1299 1.09246 1.17541
5649 1 1 2.7861 9.522 5.81881 1.02646
7026 1 1 3.0149 9.87242 4.76804 0.488586
158 1 1 3.76589 7.93408 2.75816 1.14075
930 1 1 5.93018 11.3521 0.197766 1.77812
7065 1 1 6.96632 10.5035 1.15416 1.8358
7731 1 1 4.53074 9.0594 1.79873 3.77758
429 1 1 7.80501 8.36428 37.5833 1.38583
7002 1 1 8.70162 9.37172 1.45634 0.40061
154 1 1 8.03161 9.81469 3.99731 0.316403
1296 1 1 10.1856 7.57471 0.627985 0.612893
7943 1 1 11.3144 9.05875 1.15531 2.53588
232 1 1 15.8295 9.48728 36.416 1.31159
1193 1 1 14.4809 8.17448 1.8211 0.992962
7021 1 1 14.0209 7.36804 37.5577 1.25806
1120 1 1 14.242 9.19852 1.05368 0.948385
7548 1 1 13.5766 8.42427 0.617088 1.15029
7800 1 1 18.1339 9.40409 0.0478502 1.41085
3472 1 1 17.9209 10.2073 1.97744 1.46641
219 1 1 18.2882 7.099 36.925 1.18018
7967 1 1 1.80612 10.7166 4.48248 0.327758
1349 1 1 2.53062 11.1941 3.55235 0.777568
7729 1 1 1.66278 12.6801 2.80386 1.38734
7047 1 1 2.61602 13.7773 1.29197 0.386695
48 1 1 5.8427 9.24899 5.23112 2.21856
228 1 1 2.90096 12.0684 36.6333 1.48892
1547 1 1 6.39982 8.60541 3.32693 0.499253
1790 1 1 9.63655 5.62177 3.13013 1.22347
238 1 1 9.11655 11.466 1.25005 1.78667
678 1 1 7.66636 13.5749 0.187612 0.418871
1385 1 1 9.34094 12.2504 1.91815 0.311547
64 1 1 8.29451 12.8897 1.04687 0.372245
229 1 1 11.5181 9.97858 36.9565 1.3418
969 1 1 14.956 11.0458 2.13998 1.37477
1997 1 1 14.4413 12.1414 0.362698 0.0876048
7512 1 1 15.9323 11.2623 36.7652 3.34041
627 1 1 16.0609 11.1245 0.858237 0.107449
736 1 1 17.2363 9.59106 1.05773 0.895712
7805 1 1 16.7788 14.3592 36.397 0.382991
549 1 1 2.90558 16.6516 2.05995 0.836326
1971 1 1 3.62107 13.0228 3.9466 1.60971
7621 1 1 3.89675 14.383 3.52702 0.982199
452 1 1 3.68032 9.89715 3.04045 1.80387
1046 1 1 6.22411 14.9608 37.1991 0.898355
23 1 1 3.35645 12.9476 36.3376 1.88853
6253 1 1 7.03369 8.76263 2.32122 0.992802
6723 1 1 12.1198 13.2092 1.13741 1.25506
423 1 1 15.348 10.1994 1.38641 3.20011
296 1 1 17.6696 14.1635 0.494206 0.798395
7282 1 1 13.7134 13.9575 36.7758 2.50972
962 1 1 2.35444 12.2122 2.09078 2.31893
6183 1 1 1.3793 12.3204 36.9431 0.206867
6411 1 1 2.12935 13.3951 0.31453 0.503866
7060 1 1 4.33179 13.0035 1.35938 4.90185
6898 1 1 3.64016 11.4861 37.4509 0.707803
6379 1 1 5.51019 14.2873 1.80647 1.37218
7035 1 1 7.89693 15.1985 2.45864 2.5562
7457 1 1 4.74396 13.6653 0.443612 0.673837
378 1 1 12.0874 15.0726 4.93149 2.25596
5866 1 1 7.91616 15.5064 36.3455 0.63524
7620 1 1 13.1734 13.9323 0.266275 2.66919
708 1 1 12.1331 10.4463 1.29041 0.938287
7955 1 1 13.5603 12.4308 37.3343 3.96339
1567 1 1 17.1587 11.8893 36.9606 2.15451
7338 1 1 16.9768 14.6302 1.49925 0.298165
336 1 1 15.6182 14.4325 2.28662 1.28478
7261 1 1 18.1837 16.3765 37.1987 3.97325
918 1 1 0.0839218 14.5634 0.738512 6.57277
7845 1 1 3.45293 16.2515 37.2411 2.88401
7405 1 1 6.1492 16.0992 1.42333 1.47823
1995 1 1 7.16064 16.0547 3.76242 3.44255
1561 1 1 5.88649 17.3614 37.0966 0.502004
37 1 1 9.04873 15.2325 37.2692 1.77753
6399 1 1 8.40447 14.6352 1.31442 0.340531
961 1 1 9.79364 17.9063 1.84079 1.87368
7950 1 1 12.6221 14.2827 2.8565 0.521847
1144 1 1 10.283 14.9603 34.1936 1.91264
511 1 1 12.3961 15.0251 36.985 1.34718
6032 1 1 12.3718 16.409 35.8847 0.619926
7163 1 1 12.7719 16.6029 36.8757 0.198973
820 1 1 11.4067 15.5546 36.8219 3.03771
629 1 1 14.5721 13.8024 2.70136 0.874664
1529 1 1 15.9164 16.2909 0.435196 1.53349
375 1 1 14.7126 13.2451 0.632897 0.322258
7757 1 1 16.9658 13.827 37.4698 1.21425
7672 1 1 1.05525 16.9736 36.9389 0.356852
1170 1 1 16.8364 15.0264 2.45258 0.587538
757 1 1 0.144042 16.4903 36.6879 0.0844343
2476 1 1 2.45883 18.0649 37.1575 1.86411
1984 1 1 18.1263 15.276 1.58731 1.08337
1136 1 1 1.5969 16.49 1.12414 2.1302
7248 1 1 4.23443 14.4567 0.0316746 0.80568
7530 1 1 5.97227 16.0493 3.39067 0.718713
569 1 1 5.56775 14.7109 0.801092 0.057734
7899 1 1 7.35744 16.2552 35.8182 1.75764
7736 1 1 10.045 14.5919 0.748842 2.2595
6673 1 1 9.68498 15.5827 0.294803 3.07137
1103 1 1 10.3456 14.8127 36.7651 1.38352
7680 1 1 13.9336 18.621 37.2414 0.930479
2106 1 1 11.0668 14.2112 0.989509 5.35887
472 1 1 13.4547 15.2128 0.850242 1.10095
2109 1 1 14.6928 0.00724042 0.21486 0.16362
579 1 1 17.3925 16.9515 0.335683 2.27263
1042 1 1 1.49848 14.9702 1.38949 0.942185
2662 1 1 0.964944 17.4115 35.8276 0.577772
668 1 1 1.34314 17.7161 0.299906 0.872128
1469 1 1 4.0373 18.1962 1.29211 0.697743
7773 1 1 4.17683 3.01054 1.59721 0.661469
175 1 1 7.627 2.1206 0.404316 0.591553
895 1 1 9.49089 17.5033 0.752269 2.2855
1993 1 1 10.8264 16.3595 37.105 0.140844
7753 1 1 9.89738 17.9494 37.3235 3.32234
7568 1 1 12.7216 17.2294 0.219579 1.18498
1308 1 1 14.1774 17.3421 36.1014 0.120148
788 1 1 15.7022 16.9604 34.8038 0.419672
7529 1 1 17.3903 18.6659 0.934805 2.59281
1315 1 1 17.3516 18.4901 37.322 1.55059
7434 1 1 18.4747 18.3832 2.2021 0.159563
910 1 1 1.00363 0.359338 3.59637 0.183754
206 1 1 2.26545 0.236463 4.4383 1.12292
608 1 1 1.76474 5.03525 3.48691 2.77213
692 1 1 3.21025 3.06537 4.21158 0.420223
7818 1 1 9.07129 18.7834 2.85483 0.921803
6079 1 1 5.9708 0.155585 1.25002 2.96172
55 1 1 11.1512 17.6289 1.51717 0.457422
2103 1 1 8.76756 0.831117 0.701288 0.628349
343 1 1 11.3872 16.933 2.12973 2.72215
515 1 1 13.5198 18.1635 36.4728 3.91065
94 1 1 11.4673 18.2657 0.460239 0.139997
6659 1 1 11.6638 2.4993 2.3029 1.38836
2348 1 1 14.1457 17.6479 2.2 3.43811
409 1 1 13.8976 0.173925 1.57216 1.1722
7340 1 1 12.1097 0.450032 1.83238 2.17486
281 1 1 12.4836 18.3003 0.790449 4.40023
822 1 1 14.0592 1.43941 3.50662 0.244949
430 1 1 13.777 4.93029 1.8247 1.99017
1928 1 1 15.6818 2.12343 1.98401 0.435993
807 1 1 16.7356 18.6854 3.56837 1.6822
351 1 1 18.2476 16.0921 36.0528 1.10056
1607 1 1 17.0529 0.752585 2.56046 0.0862861
149 1 1 16.1556 2.60975 2.7299 1.44247
965 1 1 17.4034 2.67679 4.09206 0.966104
2044 1 1 4.14537 3.4452 3.46657 2.02007
1654 1 1 1.84729 1.64062 3.44533 0.764186
104 1 1 4.14784 0.833332 2.7907 1.50304
915 1 1 6.35013 2.39465 5.42167 0.406555
6040 1 1 9.60525 0.77569 2.33568 1.30949
454 1 1 8.98208 3.81538 0.515454 1.60069
726 1 1 12.7616 3.24766 2.0225 1.49932
1270 1 1 14.2369 3.10636 1.81319 0.548678
6241 1 1 13.2778 2.21427 2.12433 0.387878
828 1 1 13.3047 1.34465 1.39607 1.69773
7440 1 1 16.057 3.69401 0.93689 3.00254
7028 1 1 11.5202 0.967672 2.69103 0.0708549
552 1 1 16.6802 5.57075 0.845459 0.119683
1591 1 1 17.0357 2.74934 1.32069 1.40029
914 1 1 16.7075 1.76864 4.41234 1.39543
7633 1 1 16.4737 4.86672 2.0772 0.488488
383 1 1 18.0559 4.6467 2.67337 0.286434
643 1 1 2.71757 1.65872 2.45578 1.51464
115 1 1 0.0535964 3.19689 4.58732 1.54255
7660 1 1 0.471296 4.15083 1.16269 0.562746
489 1 1 4.89876 4.65739 3.4969 0.758308
1322 1 1 4.63904 2.30455 2.90366 0.805204
7879 1 1 5.83955 5.30206 3.11865 1.54019
1237 1 1 9.28608 5.47363 2.00186 3.61906
1850 1 1 7.72781 5.64097 2.79815 1.3102
188 1 1 7.10181 4.9713 3.63346 0.159974
7861 1 1 8.29472 3.65269 3.97098 0.780536
6922 1 1 8.36022 2.29201 3.71154 0.490041
580 1 1 6.67626 4.0374 2.76046 4.91501
183 1 1 12.0687 1.4951 5.31109 2.88889
593 1 1 8.85866 3.62855 2.81947 0.627807
7468 1 1 14.5458 4.06939 1.72083 0.632575
2139 1 1 12.0355 3.73691 2.94073 4.12553
1213 1 1 15.226 4.67662 3.52784 0.655681
1203 1 1 15.2714 6.31805 2.85259 0.591591
982 1 1 1.31268 5.07039 2.32095 0.0971711
1409 1 1 2.18905 8.37855 37.3246 0.558914
7938 1 1 3.90018 3.56822 37.1916 0.797243
1338 1 1 4.31862 7.32875 5.66359 2.363
936 1 1 2.32954 1.22235 4.22227 0.450557
6605 1 1 6.4322 3.59709 1.54964 1.5323
2318 1 1 5.64083 4.44063 6.47602 0.563938
6216 1 1 4.7064 7.10596 36.9388 2.87274
125 1 1 7.74442 3.13348 3.06916 0.259329
61 1 1 10.7094 2.11776 3.92841 1.99769
6566 1 1 7.9036 4.80098 4.18715 1.01554
164 1 1 12.1212 1.14694 3.71837 1.1587
7348 1 1 13.0759 4.61587 5.43329 0.897017
285 1 1 11.7586 3.3919 1.3459 1.55462
5812 1 1 13.0989 7.44214 0.840302 2.64811
651 1 1 16.244 6.54455 1.57107 2.11093
7358 1 1 18.7887 7.23906 2.52058 0.270687
602 1 1 18.6659 5.58191 1.13746 2.809
1715 1 1 1.47243 5.8427 1.34562 0.493843
137 1 1 16.8756 4.38503 0.507369 2.75666
314 1 1 1.56049 4.41858 0.942342 1.9655
72 1 1 0.789065 5.55303 3.15206 1.22266
802 1 1 0.70478 7.97877 3.1478 0.685886
6561 1 1 17.2754 7.01043 0.734237 0.580206
305 1 1 18.4413 9.26013 5.46694 1.85467
7944 1 1 1.84992 6.74703 2.06018 1.4654
7803 1 1 2.02819 8.18949 2.13454 2.61111
1864 1 1 18.5232 5.20479 4.3127 0.872218
6971 1 1 5.21486 8.06753 3.54289 0.94045
190 1 1 1.16379 5.46347 0.39396 1.15062
7387 1 1 8.16833 6.07672 4.65985 1.65391
1781 1 1 10.2879 1.81489 3.00437 2.10779
7094 1 1 10.1734 3.93322 3.02399 3.11748
564 1 1 9.94249 5.15358 37.6409 3.55215
1450 1 1 12.7891 4.01589 4.45924 1.07696
7719 1 1 11.0347 3.37771 2.65378 1.25671
550 1 1 15.6171 8.02781 2.22375 2.83621
108 1 1 10.0387 2.99926 2.13319 2.02509
271 1 1 13.072 6.94965 4.94492 1.42724
486 1 1 12.9879 7.29816 1.89992 2.50081
956 1 1 15.9128 6.48504 5.01782 0.666115
235 1 1 16.6946 6.42375 2.43204 2.31654
6719 1 1 17.2743 4.87631 3.69664 3.56207
6196 1 1 3.83406 10.7433 3.84287 6.41149
1596 1 1 1.48439 9.13083 1.51327 1.69309
7308 1 1 1.2122 6.3574 37.4773 0.655309
7854 1 1 4.90609 9.36136 6.62977 0.56102
1917 1 1 2.56386 10.1606 2.10435 1.02508
7326 1 1 3.71541 8.68236 3.5933 0.0535556
1681 1 1 7.31306 8.25286 0.930745 2.71167
7721 1 1 7.03694 10.2029 2.14656 1.41175
7482 1 1 8.33946 5.79827 1.90878 1.03852
568 1 1 8.19527 9.12696 2.6204 0.375516
1273 1 1 6.71988 5.60548 2.61478 1.00988
7643 1 1 10.4202 9.23985 1.75252 6.09583
277 1 1 8.86559 6.72117 2.62632 1.10232
825 1 1 11.2186 10.1505 1.85519 4.93976
543 1 1 12.2821 8.78082 0.893215 2.5715
7945 1 1 14.828 10.1628 35.5194 1.02689
790 1 1 15.1101 9.52861 3.96915 2.73062
6159 1 1 1.44802 6.25363 4.46471 0.819693
913 1 1 0.0263053 6.69259 4.04508 1.40275
669 1 1 16.1374 8.04541 37.348 3.96362
79 1 1 14.9499 7.49298 1.01598 3.5106
926 1 1 0.982448 7.07252 3.65185 0.258632
205 1 1 1.19437 7.66809 1.92582 1.51596
7717 1 1 1.79459 12.2835 3.88019 2.26853
773 1 1 2.80322 12.1701 6.15092 0.960324
2504 1 1 1.91415 9.13653 6.61086 0.537381
8000 1 1 7.11498 7.52105 2.6051 1.94627
1863 1 1 6.06715 10.3787 1.99208 5.30625
357 1 1 3.33137 8.29164 0.820911 8.56984
529 1 1 5.4944 10.0875 3.83587 2.65713
615 1 1 5.70893 5.81249 2.11574 2.61206
7335 1 1 9.39321 7.93451 3.33014 0.233453
1001 1 1 9.72067 8.2525 1.46833 0.51917
2814 1 1 9.89841 10.626 34.6266 3.79923
7004 1 1 13.8667 11.2198 2.69054 0.655476
738 1 1 11.424 9.58228 2.86644 2.23476
1906 1 1 14.31 9.89306 4.84057 3.25488
374 1 1 13.621 6.08538 1.61547 2.05222
7913 1 1 12.0982 7.89684 0.361074 1.31421
596 1 1 15.842 11.9208 1.84261 0.681544
7432 1 1 16.4507 9.67812 3.41745 1.08502
7488 1 1 13.5999 9.95207 0.0848081 0.449069
6675 1 1 18.3566 8.24596 2.87725 0.969962
7966 1 1 0.693456 8.60403 2.14612 0.59853
634 1 1 1.53419 9.57162 3.93974 0.326575
7056 1 1 2.73441 10.0574 6.72064 0.392539
6232 1 1 2.78524 10.7608 5.66117 4.53222
146 1 1 5.47507 11.5932 3.55048 3.07516
6584 1 1 6.69424 11.6586 1.77851 1.40286
1226 1 1 7.03071 9.41612 36.6632 5.6911
823 1 1 8.33832 10.2907 2.94211 2.83353
955 1 1 10.9654 8.23893 2.20982 2.64802
699 1 1 6.93354 12.232 4.17138 0.809772
342 1 1 7.74392 11.9885 2.45956 0.121383
574 1 1 10.4614 10.2468 37.3624 0.291261
386 1 1 10.4943 13.4758 37.5906 4.77534
818 1 1 16.8278 12.0268 0.522065 2.17547
2453 1 1 13.4069 11.0296 5.9285 1.73098
2353 1 1 15.9983 15.1224 4.65001 1.42456
600 1 1 14.9894 8.55474 0.102282 0.44163
7888 1 1 15.9411 10.0808 37.3584 1.46729
1079 1 1 0.723349 9.22555 4.60645 0.187023
750 1 1 0.991528 8.26758 0.620819 0.514367
7128 1 1 18.6292 11.1946 1.83909 1.0204
7851 1 1 0.073085 11.5636 3.02583 1.52529
1528 1 1 5.0101 12.7309 2.33939 2.5209
1006 1 1 4.07977 11.557 4.62992 0.267175
704 1 1 6.0799 12.2852 1.1062 1.85882
7755 1 1 3.83716 11.9496 3.65409 0.612733
563 1 1 4.95236 10.7791 4.49529 0.301613
163 1 1 6.82311 13.1016 0.641909 2.60266
7704 1 1 8.46907 12.743 2.75864 0.44626
416 1 1 11.3176 10.9843 2.74441 0.698886
7266 1 1 10.1634 13.4106 0.996508 0.0956607
976 1 1 13.9031 13.1228 4.30369 0.185107
1189 1 1 14.7542 12.6026 1.64554 0.213547
7138 1 1 16.735 13.4146 0.81019 0.955286
7999 1 1 15.5208 12.9904 2.07751 1.32198
1143 1 1 16.8655 11.6537 2.62438 1.62167
303 1 1 16.9867 14.9294 4.39895 0.203243
991 1 1 17.4605 11.0211 1.45243 0.312472
7772 1 1 0.659023 14.5526 1.87698 1.48271
559 1 1 2.76001 13.9471 3.94599 2.91284
4804 1 1 4.25548 15.1014 2.49483 1.14505
6464 1 1 1.48728 13.867 1.049 0.723904
1448 1 1 4.3467 14.0846 2.16891 1.10896
7217 1 1 3.25635 16.901 3.41092 1.11314
7489 1 1 7.29375 13.9305 3.93012 1.3622
1210 1 1 6.36874 12.463 2.50861 0.381865
7961 1 1 5.26102 13.297 1.45747 5.59732
769 1 1 8.71793 13.4855 2.10102 2.96606
1432 1 1 14.4902 12.5924 5.37754 2.90734
2347 1 1 9.35691 14.1943 1.58544 3.83527
7705 1 1 11.7416 13.8758 37.5029 1.68469
6872 1 1 11.7669 14.8664 0.300959 0.9945
209 1 1 13.5573 13.2911 2.19639 0.917172
1406 1 1 16.4872 14.2784 3.27256 2.49216
1077 1 1 13.092 15.389 2.24498 1.28354
255 1 1 16.233 13.6923 1.77869 0.119067
1910 1 1 0.844303 13.7798 37.6135 3.70508
1999 1 1 17.9541 17.8694 0.345291 0.15704
7404 1 1 3.03839 14.5819 1.76498 2.23895
1729 1 1 8.14288 15.5108 0.392445 3.07118
687 1 1 5.14896 15.6919 2.59288 8.47663
239 1 1 10.7149 14.6771 1.99182 1.59516
89 1 1 11.6858 14.7733 2.6955 0.535326
640 1 1 10.1793 12.273 2.81996 2.27545
2373 1 1 12.6823 15.6701 0.375957 0.431059
1439 1 1 13.904 16.0258 5.96751 0.670663
7052 1 1 13.0496 17.2894 36.2314 2.53722
7444 1 1 13.5593 15.3056 3.38064 1.66356
7545 1 1 12.4148 15.0274 35.674 1.09729
234 1 1 1.89254 13.5813 2.30584 1.57385
6824 1 1 16.3337 17.6196 2.71662 1.20366
1590 1 1 16.6477 15.287 0.509332 1.97377
954 1 1 0.0411714 18.5196 3.90799 5.06644
1282 1 1 2.52571 17.7641 3.11766 1.18526
785 1 1 2.8937 15.8718 2.68247 0.838942
1634 1 1 2.28671 17.5182 0.413548 2.81379
1245 1 1 4.25111 16.4282 3.34236 0.357716
7957 1 1 3.63228 15.5753 1.52711 1.01038
7303 1 1 5.09187 18.0564 1.41377 0.165819
1337 1 1 5.93489 17.0117 2.05923 1.65128
381 1 1 11.2292 17.4442 5.56846 2.66781
1453 1 1 11.8384 15.8875 1.95551 0.656505
2224 1 1 12.0792 17.6538 36.2546 12.4503
841 1 1 10.3009 13.6415 35.9742 4.48911
6582 1 1 10.3317 16.989 2.11886 0.664233
809 1 1 11.9607 16.5417 1.04932 3.64068
948 1 1 12.0192 16.5408 37.5077 2.14662
1186 1 1 14.9351 15.7355 0.793309 1.68839
1986 1 1 13.939 15.816 37.53 0.0399429
7497 1 1 13.5906 12.9746 0.955834 0.719946
500 1 1 14.6237 17.5701 0.771841 1.01235
7977 1 1 0.101596 16.9854 0.0750531 0.543895
7116 1 1 18.395 16.7205 4.1717 3.40494
7947 1 1 0.133819 0.460441 2.50852 1.60296
1509 1 1 2.93334 0.255354 2.11385 1.0655
332 1 1 4.80555 15.942 1.31561 0.757759
215 1 1 1.41727 18.2441 5.69929 1.38066
7613 1 1 7.53083 18.3883 0.9576 2.90497
504 1 1 7.42589 16.1627 0.761529 0.415784
96 1 1 3.5851 1.58411 3.64539 1.50386
763 1 1 10.5726 16.2549 3.43389 2.92509
1675 1 1 5.66918 17.837 3.10638 0.508707
1416 1 1 8.23488 16.032 1.54418 1.16942
1196 1 1 10.6755 15.6708 0.846357 2.38638
898 1 1 9.08006 16.6074 2.2754 0.084594
7452 1 1 10.444 16.8801 0.664208 1.33309
1339 1 1 12.9833 0.805398 2.09595 1.34314
980 1 1 10.7192 17.4972 36.6681 1.4032
1588 1 1 11.326 1.02395 1.43964 0.114123
1589 1 1 13.6344 0.199253 3.27668 1.06597
505 1 1 12.2674 18.2322 2.19555 0.458352
7246 1 1 13.8898 16.5829 2.94047 1.46195
653 1 1 14.0338 16.9002 1.62667 8.26772
1269 1 1 14.2717 15.7649 2.3056 0.407628
1129 1 1 15.7159 14.3778 0.307946 2.00765
7744 1 1 14.6199 18.723 3.27995 1.05905
1367 1 1 17.1721 16.1455 1.25417 1.67675
109 1 1 1.70722 2.62108 3.70073 3.62175
845 1 1 1.04398 3.22788 4.32982 0.949736
2089 1 1 4.05821 2.85025 5.22504 1.30323
547 1 1 5.22133 2.54124 1.85827 1.22788
7197 1 1 5.76597 1.78185 4.74926 2.44754
6777 1 1 5.25992 3.87837 1.33957 4.70794
7982 1 1 8.76289 17.9661 3.73015 0.832892
171 1 1 6.96875 17.1939 2.91621 2.34468
1734 1 1 10.0417 18.1991 2.85253 1.81848
1466 1 1 9.02375 0.119223 1.72855 1.64641
2204 1 1 10.6382 0.285614 2.88754 1.27802
7821 1 1 9.18143 17.6738 2.78272 1.17806
7539 1 1 11.3224 18.3797 37.0367 1.73461
2867 1 1 13.6802 18.3717 4.75986 3.48644
7422 1 1 11.6522 0.48777 4.36055 1.18542
867 1 1 15.0083 0.104028 5.43964 0.715535
1007 1 1 13.9451 1.61466 2.43437 2.11283
772 1 1 15.7617 1.04744 4.30744 1.78858
126 1 1 15.6128 4.58199 1.67336 0.953261
194 1 1 16.5973 3.63492 5.36159 1.04595
3242 1 1 18.0647 1.14308 2.3345 0.626035
7937 1 1 0.693972 3.75941 5.28148 1.71942
633 1 1 5.68389 3.13609 4.09575 1.40015
1738 1 1 0.880378 3.54669 3.37421 1.99088
2030 1 1 2.16078 2.08178 6.37759 1.0751
1365 1 1 3.96574 1.67921 2.34094 3.77999
1309 1 1 7.42131 17.3361 4.07277 0.685666
1488 1 1 7.54387 2.67126 4.84025 0.428007
1543 1 1 8.71296 1.30364 3.91792 0.799513
1661 1 1 10.7903 1.5879 2.18648 0.294473
7535 1 1 9.99436 17.4936 3.62144 2.24617
189 1 1 6.79403 1.64591 4.71894 1.46598
2177 1 1 9.74465 0.246722 3.61502 1.47526
544 1 1 9.514 2.39348 4.03646 0.214017
1044 1 1 12.4416 0.591919 0.406607 1.44787
742 1 1 13.5208 3.16372 2.76065 2.93927
3071 1 1 15.3582 3.04508 1.46654 0.219737
7830 1 1 16.5591 0.935312 3.5549 0.117105
1354 1 1 17.1336 2.28055 3.16259 0.999236
7758 1 1 15.1481 2.83528 4.36551 0.132914
7423 1 1 14.9392 18.7896 1.5224 2.26172
874 1 1 16.2711 3.61428 2.24175 2.24574
509 1 1 3.96993 5.67587 3.56723 0.293015
966 1 1 0.367428 5.52204 2.23191 1.25924
2033 1 1 2.68245 4.38047 3.52903 1.17298
2917 1 1 3.28411 6.89295 2.61967 1.04836
2559 1 1 4.35335 6.27838 2.10648 0.296117
7785 1 1 5.46367 3.34932 2.55391 1.46057
1348 1 1 5.76024 0.660083 2.02336 2.65009
7215 1 1 6.94863 3.56129 3.74418 0.110717
656 1 1 6.28326 1.25135 3.01597 0.308225
7924 1 1 8.57274 2.20592 4.69923 2.12473
661 1 1 6.52708 2.64828 4.41016 4.47676
1098 1 1 6.47394 2.71753 6.45928 3.59638
6477 1 1 7.39368 6.07836 3.72344 0.870064
1302 1 1 8.89328 4.56047 4.05302 0.304229
418 1 1 9.48851 3.1259 4.74224 0.612885
6060 1 1 10.8128 1.38125 5.04799 5.66672
6136 1 1 13.4628 3.55864 5.23997 2.86104
387 1 1 10.6324 6.69442 3.50933 11.6524
7185 1 1 12.593 2.17821 2.87057 1.2142
636 1 1 15.0567 2.37467 0.685364 0.857337
1539 1 1 15.6269 5.54581 1.13302 2.18764
1422 1 1 13.5611 4.46049 3.60509 0.336
1041 1 1 16.1823 1.2199 2.40042 0.269635
2202 1 1 18.5636 2.68353 1.87484 2.64783
7284 1 1 16.0778 7.67158 5.02798 0.161648
1374 1 1 3.08457 5.31501 5.5842 3.91327
7841 1 1 3.43513 8.77406 2.49222 0.756305
6026 1 1 3.78173 4.00033 2.40873 0.948083
3 1 1 4.55597 7.25353 2.58486 0.0519971
82 1 1 7.50592 5.50176 5.70428 2.20322
985 1 1 6.21182 5.42698 4.16184 1.15967
7123 1 1 7.41447 3.73629 4.53256 0.618608
533 1 1 8.07724 6.54099 5.73429 0.783701
214 1 1 7.35358 9.38209 6.21432 0.4695
7663 1 1 8.46766 4.41988 4.94663 0.882402
1291 1 1 11.7107 2.38236 3.3643 1.3105
7644 1 1 11.3068 7.5346 3.21521 0.180282
588 1 1 13.9532 3.25196 4.10911 1.66187
3586 1 1 14.0102 6.34991 4.8594 2.01524
7725 1 1 12.5488 6.03788 3.83859 1.26304
4139 1 1 18.3129 4.14271 4.84282 1.03173
928 1 1 1.78226 5.1922 4.69769 1.42227
7646 1 1 15.4929 7.24718 6.93451 1.10767
7992 1 1 0.573218 6.77573 4.87112 0.218674
1002 1 1 4.98956 5.8009 3.81212 1.03962
6804 1 1 18.0858 4.5981 6.67603 1.45095
2162 1 1 2.13041 7.27366 4.11476 0.37831
153 1 1 4.56567 7.84885 4.21748 0.342741
5747 1 1 7.80958 4.3582 3.04295 1.24122
2608 1 1 5.61348 6.98086 2.46278 0.279847
117 1 1 9.01583 5.6661 5.75324 1.29758
2311 1 1 5.4518 6.41424 5.34989 2.72803
7683 1 1 7.83986 6.97883 3.5054 0.821635
2589 1 1 8.37487 7.47843 4.34076 0.195588
553 1 1 9.24169 5.09648 4.97865 0.131338
7782 1 1 12.8306 5.49171 4.72964 0.188512
1784 1 1 12.4496 6.14697 1.30403 0.0839913
1460 1 1 11.7426 5.69723 4.8733 0.811274
1927 1 1 14.3101 4.97562 5.40473 1.51581
591 1 1 14.7923 5.97503 6.2835 0.684059
240 1 1 15.0262 5.99702 5.1934 0.819031
102 1 1 16.9595 7.3323 3.72619 5.01201
2798 1 1 15.8471 7.48274 3.82982 0.499001
1728 1 1 0.749194 10.0595 3.25258 0.789477
107 1 1 1.85426 9.31638 5.59388 1.12918
667 1 1 16.4257 9.25522 5.21832 1.18197
7242 1 1 3.78102 7.52092 3.74372 0.185411
7641 1 1 0.00143585 9.04133 6.58101 1.72645
925 1 1 2.54386 8.44382 4.00576 2.13806
1717 1 1 4.56516 5.50245 1.48311 2.88024
5817 1 1 3.06064 7.9258 1.74592 0.384456
1217 1 1 8.23377 8.49623 1.54909 4.13207
404 1 1 4.5014 9.16406 5.71903 3.94617
1194 1 1 8.99519 9.02648 4.08576 1.67818
604 1 1 10.425 5.69955 2.29058 3.73851
345 1 1 7.26031 9.33854 3.42474 0.577039
7538 1 1 10.5071 8.61416 3.85165 1.57592
7322 1 1 11.17 4.52321 2.94274 0.955756
216 1 1 10.157 9.09098 4.95192 2.68639
1069 1 1 8.00118 7.38033 1.68864 3.039
557 1 1 12.366 8.44591 2.8793 7.77741
1833 1 1 11.4734 8.84074 3.93757 0.88952
7739 1 1 12.9461 9.2675 4.11847 1.70455
6619 1 1 12.0384 6.1261 2.74203 3.22549
7756 1 1 14.0185 7.09102 6.44124 3.41443
7983 1 1 17.039 6.96062 4.7911 1.12906
957 1 1 14.8414 4.81418 6.43994 0.902384
622 1 1 17.0959 7.56698 2.78288 0.391153
7795 1 1 15.2802 9.3064 1.82344 3.87962
2151 1 1 16.1271 8.78469 2.95646 0.819648
230 1 1 17.8908 7.37881 4.70835 1.4541
765 1 1 1.73789 10.1438 6.31646 5.09094
626 1 1 3.44629 7.05204 7.49686 0.789609
478 1 1 4.00962 10.1986 5.20691 0.158876
842 1 1 4.4875 8.7514 2.95142 1.29274
7472 1 1 6.58951 6.57273 3.07901 1.105
983 1 1 5.9226 7.595 5.66919 1.82752
1105 1 1 11.041 12.7936 4.99472 3.00611
3068 1 1 11.9725 10.8548 4.32395 1.14631
3406 1 1 11.6536 10.9699 0.104303 1.00598
1802 1 1 13.6623 8.60718 3.40744 0.486955
2578 1 1 14.0816 12.103 4.50367 2.12592
1250 1 1 13.4919 8.73658 4.85531 1.23684
7470 1 1 17.4124 13.8753 2.74645 2.80308
1184 1 1 15.6996 10.7588 3.54104 1.95464
1677 1 1 17.7225 8.80399 2.31473 1.72905
1287 1 1 18.7436 10.7486 3.99473 2.00691
1082 1 1 2.25024 10.773 7.31797 1.53792
1709 1 1 18.5647 9.27517 3.91555 0.692152
369 1 1 2.07532 13.1647 5.71586 2.38669
203 1 1 1.2394 13.5266 3.56795 1.09393
7541 1 1 3.00476 13.6638 6.6316 0.754421
834 1 1 1.17791 11.2002 6.18926 1.14602
134 1 1 5.31642 11.8195 5.429 1.94477
6842 1 1 4.85331 12.4914 4.84183 0.441927
6975 1 1 6.5912 13.8555 4.7288 1.35471
970 1 1 6.628 14.186 0.533035 0.0810008
1475 1 1 7.7002 8.40111 3.79134 2.79591
95 1 1 6.24149 11.2825 2.92325 2.02317
1968 1 1 9.45197 11.563 2.87651 2.42378
6693 1 1 11.5721 12.381 0.518313 0.0935244
7798 1 1 14.1087 12.273 3.41922 4.80172
7531 1 1 12.2286 12.7722 3.1277 0.523995
7156 1 1 13.332 11.1164 3.46324 3.29022
1848 1 1 12.5323 11.562 5.8557 0.403767
38 1 1 14.5251 10.0496 3.06166 1.11331
1072 1 1 15.8035 13.4277 2.99548 3.54564
2638 1 1 18.2708 10.7431 2.83804 5.07541
1438 1 1 16.3536 10.7148 2.10269 3.16302
6563 1 1 2.87125 11.518 2.58882 4.01677
1836 1 1 17.098 12.0374 1.5699 0.736324
1793 1 1 1.76462 12.087 0.436618 0.533271
259 1 1 0.653641 13.7818 2.88447 1.54791
178 1 1 2.27947 13.4061 3.255 0.45077
840 1 1 4.8261 12.6087 3.5295 3.20757
1264 1 1 6.35545 9.7227 2.85167 3.90529
487 1 1 7.19789 11.4206 3.59745 1.23711
7139 1 1 7.68947 11.0265 2.76576 1.34486
630 1 1 8.13564 10.7937 1.63838 0.352381
3108 1 1 12.537 13.8176 36.4769 0.968854
7834 1 1 12.3886 11.5146 1.60874 2.1924
1904 1 1 13.416 13.2174 5.26311 2.89545
1799 1 1 14.1015 13.0537 6.19061 2.59835
451 1 1 15.5832 11.8607 0.329496 0.437907
1187 1 1 14.2549 15.1074 4.61376 1.65169
7089 1 1 16.5889 12.7582 2.10083 1.17043
7670 1 1 15.2161 15.7276 5.01142 2.29998
5605 1 1 1.71341 15.9432 2.63145 0.428388
6665 1 1 5.44697 10.7277 2.93736 0.332347
245 1 1 5.15922 13.7552 3.11723 0.528688
7811 1 1 3.64399 13.4539 3.01767 0.0340748
481 1 1 6.29138 15.1313 2.14943 2.96066
844 1 1 6.18472 15.0157 3.81639 3.72945
885 1 1 8.87999 15.559 3.42886 3.13571
53 1 1 8.16139 12.3061 4.67792 0.232404
221 1 1 11.2952 12.0139 3.37083 1.45849
1295 1 1 9.81281 10.4587 3.71915 0.782002
734 1 1 10.591 14.6554 5.97027 2.40226
7893 1 1 13.48 12.3122 2.20053 4.82961
7040 1 1 14.9709 13.0009 3.30465 2.98073
7551 1 1 12.1316 13.7494 6.8596 0.629993
7180 1 1 13.2963 14.0006 6.18719 1.09556
1200 1 1 14.7095 16.5002 5.43361 1.59612
888 1 1 17.1599 13.6514 4.42209 0.49541
1676 1 1 2.09371 14.5854 2.07948 1.30806
854 1 1 17.8933 14.345 4.04281 1.83855
6762 1 1 18.6587 12.9683 3.21889 3.40494
1340 1 1 0.85121 15.1991 2.79522 0.481041
7826 1 1 17.8891 16.2009 1.97252 1.26984
642 1 1 2.53639 15.8198 1.34734 6.58674
7840 1 1 2.92893 14.2442 2.73248 1.46004
7051 1 1 4.99563 16.1646 6.23043 0.709456
480 1 1 3.16249 18.452 4.05155 0.323559
1505 1 1 5.53831 13.255 3.93055 1.82361
1128 1 1 3.90242 16.2862 2.34755 0.190026
7174 1 1 4.54712 14.7912 1.4441 0.238302
800 1 1 7.18869 14.9884 4.70628 0.215912
1930 1 1 6.99068 15.6306 5.63493 0.633074
1940 1 1 10.3191 10.9921 2.91758 0.856231
6946 1 1 12.8997 13.9247 4.4305 0.292068
7678 1 1 6.48442 13.1653 1.68491 3.04471
7856 1 1 9.45096 14.6502 3.22036 1.57554
3078 1 1 15.6091 13.3402 5.98364 1.28313
433 1 1 9.69837 13.7947 2.40317 2.92266
1167 1 1 11.8443 13.4114 4.51289 0.648254
6590 1 1 12.1988 17.3043 5.82252 0.418297