ITEM: TIMESTEP
4100
ITEM: NUMBER OF ATOMS
8000
ITEM: BOX BOUNDS pp pp pp
0.0000000000000000e+00 1.8820720577620570e+01
0.0000000000000000e+00 1.8820720577620570e+01
0.0000000000000000e+00 3.7641441155241139e+01
ITEM: ATOMS id mass type x y z v_temp
7088 1 1 18.5628 0.400847 0.194835 0.975001
677 1 1 1.43735 0.847553 0.826619 0.345056
6814 1 1 4.5553 0.705377 1.30858 4.35586
2103 1 1 7.78287 0.321273 1.00208 2.15941
1134 1 1 8.70906 2.11473 0.460176 0.139359
6551 1 1 9.36081 1.21422 1.12333 0.804991
1588 1 1 11.2202 1.5308 1.35941 0.638299
6121 1 1 9.71162 0.330407 0.832349 2.2171
94 1 1 11.9729 18.435 0.517489 0.612712
1044 1 1 12.758 0.117645 37.617 3.92295
7796 1 1 12.3992 1.31039 0.278733 0.357476
7301 1 1 13.4399 0.841781 0.829335 0.866531
7423 1 1 14.4193 0.502787 1.17367 0.818146
7960 1 1 15.3292 1.06847 0.421018 1.37113
1479 1 1 17.1234 0.305253 0.243782 2.69357
2221 1 1 15.5605 18.7113 0.123715 2.72732
5355 1 1 0.323371 2.37532 0.209401 0.567236
859 1 1 1.9786 1.99095 1.13953 2.04941
776 1 1 3.37973 1.6081 0.395699 1.53404
6494 1 1 5.37565 2.88615 0.142586 2.78944
7412 1 1 4.47554 2.06311 37.3032 0.428255
2824 1 1 4.47883 1.86449 0.95943 0.539418
7604 1 1 6.47272 2.21218 0.749469 0.123874
7653 1 1 6.18721 2.09819 37.1711 1.59937
1266 1 1 7.56447 1.57832 1.58387 1.14534
175 1 1 7.70235 2.77355 0.80347 1.18151
7032 1 1 9.64392 2.33354 1.07616 2.73771
437 1 1 10.3163 1.36734 0.530361 5.08265
1563 1 1 12.8317 1.72554 1.69473 2.43426
7431 1 1 12.1619 2.06067 0.848596 0.152716
1806 1 1 12.2995 3.2327 0.582713 2.97353
350 1 1 12.966 2.20713 0.170583 3.12595
828 1 1 13.9232 2.39721 0.518618 1.37093
636 1 1 14.6499 1.68746 1.0354 1.86839
1183 1 1 16.7865 1.4155 0.685588 1.2818
877 1 1 16.2762 2.40904 0.143254 0.510189
6845 1 1 17.3639 2.73495 1.21147 2.24634
2202 1 1 0.573439 2.4683 1.38065 3.21325
791 1 1 0.563484 3.41788 0.298924 1.4987
6006 1 1 3.25377 2.48651 1.32961 3.36393
314 1 1 2.27879 4.27204 1.32668 1.48501
406 1 1 4.30665 3.11663 37.3807 2.92475
367 1 1 3.79223 2.65816 0.481725 2.40146
6777 1 1 4.96895 3.53451 0.872498 3.03255
324 1 1 6.38103 3.9359 1.4385 3.5213
454 1 1 8.46708 4.72296 37.5369 0.166908
1085 1 1 7.38237 3.96106 0.695989 0.889451
5462 1 1 8.85214 2.95564 1.33852 0.612357
2244 1 1 10.194 2.45817 0.208676 2.31361
285 1 1 10.8114 2.49402 1.15947 0.0953867
7115 1 1 12.4251 4.38958 37.5561 4.24849
7155 1 1 13.7594 3.51617 0.524388 0.573611
430 1 1 12.8992 3.95183 1.07667 0.458273
7392 1 1 14.0298 2.89562 36.9744 3.16991
7440 1 1 17.1373 3.96781 1.48676 1.7215
7660 1 1 0.196868 4.27284 1.29106 2.4612
190 1 1 1.4665 4.43541 0.562923 0.13756
7346 1 1 0.286966 4.47541 0.0801885 0.193571
1562 1 1 2.7509 6.27358 0.863536 0.689641
733 1 1 3.94974 5.48358 1.64308 2.15753
7260 1 1 4.15747 4.27822 37.5523 2.07828
7564 1 1 8.6991 4.92324 0.924628 3.56451
7450 1 1 9.86364 4.68073 0.665229 1.97034
973 1 1 10.6617 4.23962 1.07141 0.365797
5741 1 1 10.6726 5.64835 1.59683 0.725382
6949 1 1 11.6766 6.36782 1.35608 1.44844
6997 1 1 12.6961 4.08381 2.17753 0.32232
7544 1 1 15.8829 5.3295 36.0845 6.97852
7273 1 1 16.8379 4.86591 0.482953 1.92406
552 1 1 16.7258 5.59 1.32338 1.33236
137 1 1 17.6264 4.91093 1.31927 1.14925
1020 1 1 18.2853 5.78419 1.33961 0.308332
7594 1 1 18.1187 4.78965 0.385471 0.226797
1037 1 1 1.17058 6.25845 0.501271 2.49581
7965 1 1 0.133213 7.46589 0.351813 1.46978
1714 1 1 2.0975 5.57929 0.266367 0.167882
762 1 1 1.87825 7.40784 0.547564 2.56855
135 1 1 3.68212 6.55876 0.595817 0.278528
7703 1 1 6.07385 5.58833 0.542975 3.28709
6441 1 1 8.62284 6.72242 1.55829 1.9077
1296 1 1 10.1143 6.85274 0.901154 4.44056
187 1 1 9.43401 6.04573 1.12174 0.697274
997 1 1 8.94918 6.96653 0.402129 1.26174
5812 1 1 13.0208 6.22378 0.701298 1.40591
1784 1 1 12.2617 4.69508 0.934254 3.31403
2197 1 1 15.3977 6.7682 1.48518 1.75418
469 1 1 15.2829 6.08137 0.334786 4.52093
6476 1 1 14.7605 5.47567 37.2983 1.26921
7318 1 1 17.4897 5.72255 0.574804 0.170074
6561 1 1 17.8547 6.70943 1.26234 0.686023
7844 1 1 0.191249 5.52345 0.310277 4.74766
205 1 1 1.02424 8.27849 1.49956 0.611633
7570 1 1 0.873965 8.43157 0.560652 0.588509
357 1 1 2.92938 7.6219 0.944683 3.46558
750 1 1 1.93472 8.42525 0.737623 3.23561
922 1 1 5.69688 8.18346 0.533254 0.812501
174 1 1 4.41758 7.97508 1.53198 1.71561
7738 1 1 6.69431 8.44909 37.3253 0.217907
1681 1 1 8.10741 8.12871 0.645018 1.32841
1001 1 1 9.23983 7.5695 1.02856 0.156355
7573 1 1 9.79609 7.55579 37.1762 0.781085
6907 1 1 10.914 7.45727 0.877981 1.39781
7913 1 1 12.3931 7.13152 0.920578 0.105487
7548 1 1 14.1952 8.04571 1.23999 0.0452557
79 1 1 14.2676 6.53781 0.312423 1.25221
7411 1 1 13.5245 7.25714 0.451042 0.19073
669 1 1 15.105 7.12545 0.248719 0.211026
6959 1 1 14.6582 7.91021 37.4703 4.0251
7424 1 1 16.7838 6.99305 0.93952 1.04248
1401 1 1 17.2591 7.75014 0.240474 2.04514
875 1 1 17.4409 7.81028 1.48401 0.868181
6828 1 1 18.7921 7.94065 1.15239 1.12855
1596 1 1 1.6433 9.24865 1.42918 3.7331
6343 1 1 0.856785 9.56343 0.630314 0.319289
6767 1 1 2.70771 10.0538 0.875742 1.89246
7846 1 1 1.92958 9.75536 0.0876748 1.66829
86 1 1 3.57774 8.58848 0.666913 0.164487
7144 1 1 4.6043 9.91325 0.243915 1.26261
7513 1 1 5.51814 8.65154 1.37498 1.141
6380 1 1 7.29612 9.78111 0.0947843 2.0206
6235 1 1 7.84682 9.45296 1.19123 0.789324
7002 1 1 8.79999 9.4167 0.962587 2.62999
7643 1 1 9.8833 9.48467 0.749312 1.56428
7019 1 1 9.78378 8.73323 37.5904 0.282566
7943 1 1 11.8697 8.17344 0.743674 0.507038
543 1 1 12.7969 8.08188 1.01429 1.63792
5838 1 1 14.4855 10.2442 0.67281 1.20601
1120 1 1 14.5081 9.43371 1.30438 0.442305
600 1 1 15.8796 9.1647 0.326104 0.671709
2072 1 1 15.2026 10.5056 1.62535 4.64581
5857 1 1 16.8841 8.68873 1.25623 0.794703
736 1 1 18.2302 8.88518 0.758309 1.20715
7397 1 1 0.270604 8.96629 1.51843 0.613565
7800 1 1 18.0434 8.57119 37.2983 1.32055
7581 1 1 18.4602 9.84207 0.651243 0.40706
6599 1 1 0.69491 10.9736 0.88556 0.145506
7567 1 1 1.8881 10.5681 37.0272 1.12532
439 1 1 3.04762 10.8923 1.38149 3.03448
1172 1 1 4.2709 10.3575 1.12996 0.328468
191 1 1 4.95304 12.1902 1.40987 2.67395
7065 1 1 7.01366 10.0014 1.08978 2.03713
236 1 1 6.2519 10.7532 0.49325 1.34178
6933 1 1 7.39876 10.5294 36.8312 1.93337
238 1 1 8.27518 11.1925 0.518548 1.73402
574 1 1 9.73335 9.91611 37.3776 0.482215
6631 1 1 8.96349 10.5635 1.14972 1.72191
7949 1 1 8.23353 10.024 0.0352306 1.23365
3406 1 1 10.4811 10.4752 0.340536 1.33441
7834 1 1 13.2975 11.6527 1.26637 2.41182
1584 1 1 11.8312 10.1881 0.928907 1.96684
932 1 1 12.9662 10.6712 0.819475 2.78704
627 1 1 16.6451 10.2723 0.603875 2.0964
1438 1 1 17.6014 9.82096 1.12539 1.83481
6752 1 1 16.9173 9.26607 0.405839 0.314087
991 1 1 18.2046 10.8784 1.0496 1.86263
7555 1 1 18.6017 10.7135 37.6171 0.533001
1793 1 1 0.265091 11.865 0.246211 0.692389
962 1 1 1.29328 11.8101 0.751446 2.41479
7060 1 1 2.96395 12.0721 0.932166 0.498242
340 1 1 5.35865 12.2682 0.359078 0.243394
662 1 1 4.3441 12.7667 0.635705 1.86422
704 1 1 6.32967 13.4482 1.24612 2.20237
7351 1 1 7.40185 11.7855 0.879979 1.27479
2234 1 1 9.00314 11.708 37.1058 2.53164
6693 1 1 11.124 12.0533 0.934005 1.09309
7749 1 1 10.3375 11.8372 37.5193 0.496768
2320 1 1 9.87979 11.393 0.913623 1.35398
6723 1 1 12.9875 12.6081 0.641444 2.64015
7497 1 1 14.4565 11.7642 0.822921 2.07032
1997 1 1 15.5317 11.2043 0.459876 2.47363
818 1 1 17.9363 12.3107 1.5316 2.29361
1399 1 1 18.0441 11.6793 0.16252 4.21486
924 1 1 18.5802 13.717 1.56062 1.92222
6411 1 1 2.05516 13.3907 37.6098 0.893932
6464 1 1 0.461353 12.8741 0.940489 4.22828
7248 1 1 3.88188 14.3525 0.636544 4.40188
7404 1 1 2.92409 14.149 1.24363 1.065
7836 1 1 3.96835 13.5745 -0.00528835 0.481932
7457 1 1 4.9782 13.5898 0.180058 1.67789
7174 1 1 5.17869 14.8488 1.14775 0.940448
163 1 1 7.27172 13.2478 0.673386 1.12605
970 1 1 6.75947 14.5195 1.19937 0.363369
678 1 1 8.39697 14.1888 0.259475 0.74863
64 1 1 8.17234 13.533 1.13919 2.04692
6399 1 1 8.61674 14.6274 1.39448 0.192356
386 1 1 9.82673 13.995 0.663386 0.221782
6873 1 1 9.0902 13.1932 0.719237 5.34443
830 1 1 11.131 12.8857 1.43674 2.21296
2106 1 1 12.7089 13.7775 0.793494 1.25601
375 1 1 13.5538 13.5633 37.1376 0.285652
209 1 1 13.8108 13.0783 0.646667 1.25002
5900 1 1 13.8423 14.0836 0.466226 0.992582
1749 1 1 14.8074 14.5078 0.807831 0.90645
711 1 1 15.4779 13.4581 0.671573 0.250537
7138 1 1 18.0066 13.7051 0.45871 2.07893
346 1 1 18.2908 12.8104 0.421744 2.6902
918 1 1 18.7543 14.4105 0.508827 0.127281
1136 1 1 0.99199 15.4216 0.16889 0.506264
6637 1 1 1.42443 14.1874 1.36419 2.24404
7957 1 1 4.17561 14.6958 1.58308 0.507014
642 1 1 3.20363 16.0504 0.0578933 1.47013
639 1 1 4.34996 15.1927 0.535669 0.399977
569 1 1 5.92861 14.2031 0.684284 4.19932
6673 1 1 8.86262 15.0099 37.395 0.163613
1729 1 1 7.95871 15.0038 0.662022 0.193833
504 1 1 7.7655 14.9403 1.68902 2.14068
7736 1 1 10.7791 15.3387 1.27414 0.747715
239 1 1 11.1835 14.2474 1.16683 0.434796
472 1 1 13.0345 14.8248 0.391144 1.92229
2373 1 1 12.137 15.4938 0.819147 1.7994
1186 1 1 13.1686 15.8548 0.864241 0.499979
7011 1 1 16.3457 14.8918 1.34848 1.51405
7338 1 1 17.2998 14.4625 0.932259 0.497555
296 1 1 17.3265 15.5686 0.484003 2.72972
7977 1 1 0.414258 16.7227 0.0323024 0.856055
7863 1 1 0.607002 16.2681 0.938711 0.380902
668 1 1 1.48655 16.4315 0.301961 2.84606
1634 1 1 2.69766 16.627 0.81275 0.574455
7097 1 1 3.61528 16.3662 1.09233 0.705907
332 1 1 4.74696 15.6944 1.34682 1.1952
7300 1 1 5.67207 17.318 0.245481 0.080877
7297 1 1 7.17599 15.6076 1.1562 1.39303
287 1 1 7.44699 16.7172 0.975932 5.37265
414 1 1 8.6507 16.5432 0.415662 1.18826
5509 1 1 9.88508 16.2482 1.68581 1.0121
1196 1 1 9.92713 16.9578 37.5253 5.37048
6228 1 1 11.3177 17.5364 0.239754 0.375262
7568 1 1 13.0626 16.5649 37.3277 2.49402
809 1 1 11.1074 16.3833 0.5032 0.787137
653 1 1 13.2818 17.1921 1.23832 1.29093
6982 1 1 14.2483 16.5713 37.5651 1.5583
2506 1 1 14.8789 16.6308 1.07363 0.434998
579 1 1 17.523 17.1657 36.8515 0.559331
273 1 1 16.3419 16.7759 0.650987 1.01747
1216 1 1 18.3295 16.6093 0.801036 0.360612
328 1 1 0.328143 0.00785305 1.29402 4.55058
647 1 1 1.46066 17.6605 1.53662 6.92717
1469 1 1 3.27882 17.3066 1.35661 1.15706
829 1 1 2.23578 0.754512 37.6721 3.32299
1573 1 1 5.35843 18.8254 0.714329 0.818191
758 1 1 4.38435 17.8451 0.432727 0.0165767
6079 1 1 6.34134 18.4837 1.32022 0.794042
7613 1 1 7.34984 17.8908 0.955447 0.834109
6855 1 1 8.75262 18.5541 0.484027 3.75695
895 1 1 8.39394 17.6209 0.636808 3.14846
7452 1 1 10.1708 17.646 0.946468 1.9548
7753 1 1 10.9255 18.4453 0.837854 1.44128
281 1 1 12.6853 18.0981 1.50783 3.37971
500 1 1 13.6313 18.5105 0.490861 1.31886
1413 1 1 14.9218 17.7953 1.50777 1.54028
7529 1 1 16.6825 18.0842 0.428187 0.82764
1999 1 1 18.5999 18.037 0.930025 0.627452
1713 1 1 0.99994 0.139194 2.75086 0.445276
643 1 1 2.93196 0.418773 2.25638 3.84898
1509 1 1 1.40271 -0.0125808 1.65012 1.53502
2026 1 1 4.96547 18.2652 2.06134 2.59673
1365 1 1 3.9413 1.62659 2.35196 0.0401078
104 1 1 4.68226 0.479236 2.45867 1.94111
1750 1 1 6.10015 1.92723 2.66517 2.73894
1348 1 1 6.04902 0.0935481 2.38841 0.595754
6581 1 1 8.42317 18.7177 2.09407 1.33397
6040 1 1 8.61031 0.872948 1.72772 1.79077
1140 1 1 10.0881 1.0764 2.62798 4.66301
7028 1 1 12.278 0.717739 2.89728 3.75774
7340 1 1 12.4701 0.431779 1.71541 0.802211
7185 1 1 13.704 0.874762 1.83229 2.35681
1339 1 1 14.3064 0.156164 2.32345 1.69182
1973 1 1 15.3873 0.444966 1.85095 2.60084
1041 1 1 16.3632 0.612734 1.85666 2.80045
1511 1 1 18.1047 0.680615 1.30129 0.352232
1607 1 1 17.9027 1.34145 2.51009 0.918222
3242 1 1 18.6947 0.360541 2.3367 0.910854
508 1 1 0.365213 0.976087 0.92963 2.01885
7679 1 1 0.763917 1.1278 2.38678 1.93704
1198 1 1 3.10814 1.32495 1.61531 1.07077
7718 1 1 2.66316 2.83171 2.11463 0.271853
7773 1 1 3.99972 2.92751 1.97194 0.334242
547 1 1 5.25437 1.39403 1.74655 1.39521
7751 1 1 6.65825 1.24133 1.74244 1.55388
6866 1 1 7.16909 2.58 2.25344 1.90981
108 1 1 9.64166 3.06574 2.28451 3.24013
6363 1 1 9.11722 1.81606 1.95626 4.76375
1661 1 1 10.1484 1.94268 2.04761 0.387306
6659 1 1 12.4153 1.98897 2.77375 0.939645
6241 1 1 12.5054 3.2248 2.8808 5.6213
1007 1 1 13.2954 1.86407 2.49461 0.674907
3932 1 1 14.6361 3.17874 2.0497 2.24902
1928 1 1 15.5941 1.29992 2.36913 2.15259
3225 1 1 14.2669 2.23485 2.55401 1.41289
1591 1 1 16.4183 2.98447 2.24277 0.785091
1672 1 1 18.601 1.50607 1.69493 1.44009
31 1 1 1.38396 3.72858 1.65327 0.689367
2558 1 1 2.09525 3.86508 2.68347 0.680671
1045 1 1 3.39861 3.71345 1.33434 0.318296
6026 1 1 3.27136 3.46105 2.94515 4.10072
7785 1 1 4.60036 3.32045 2.70697 0.573273
6083 1 1 5.87108 4.03703 2.44158 0.0648929
6605 1 1 6.21132 2.82842 1.75808 0.449957
7625 1 1 8.05532 4.1548 1.41438 2.59583
593 1 1 8.19881 3.03872 2.31345 1.84059
1381 1 1 10.0081 4.0061 1.69224 0.460286
354 1 1 9.05174 4.2638 1.60244 2.45825
7094 1 1 10.4615 4.81066 2.3808 0.795174
7719 1 1 10.712 2.71424 2.61466 0.4765
726 1 1 12.3713 2.74965 1.8764 0.675836
1270 1 1 13.6058 3.3646 2.27513 1.33483
3071 1 1 15.9326 3.31532 1.17835 1.73683
874 1 1 16.7803 3.75355 2.77633 0.27455
7697 1 1 0.247251 3.59743 2.10199 4.7288
6423 1 1 17.6644 2.84521 2.42463 0.208747
982 1 1 1.54146 4.60139 2.06387 1.07116
602 1 1 0.885252 5.24829 1.4847 1.11491
1310 1 1 2.80199 5.47117 2.65901 0.786643
1717 1 1 3.69954 4.68432 2.40369 0.717013
1279 1 1 4.61647 4.44276 1.83151 0.142133
7879 1 1 5.19365 4.60965 3.16879 0.281006
7612 1 1 7.12888 4.71624 2.13753 0.269273
1273 1 1 5.81316 5.38036 2.14816 1.15159
6424 1 1 5.32182 4.99005 1.25102 1.28176
1237 1 1 9.58775 5.21219 1.77215 0.640195
604 1 1 11.0698 3.60322 2.24166 2.42477
7466 1 1 11.5867 4.51931 1.75178 1.81764
742 1 1 14.8051 4.94459 2.88964 1.40593
7468 1 1 14.7595 5.06518 1.88965 0.430723
126 1 1 15.9072 4.67974 1.4413 0.240099
1539 1 1 15.728 5.59675 1.01505 1.06428
1648 1 1 15.6076 5.60759 2.64476 1.51882
7633 1 1 16.8228 6.25543 3.563 3.02207
6640 1 1 18.1238 6.02277 3.03108 0.330504
1715 1 1 1.15613 6.27874 1.64377 1.79861
966 1 1 1.34337 7.34054 1.94499 0.937606
7944 1 1 2.07347 6.86591 1.5199 4.03606
6987 1 1 3.0703 6.45187 2.13088 1.86511
2559 1 1 4.05367 7.365 2.22158 0.609189
6815 1 1 3.03352 8.2169 1.86274 2.15831
615 1 1 4.80052 6.49722 2.49297 1.50383
2608 1 1 6.32989 7.11314 0.969218 6.61038
7472 1 1 7.14417 6.54256 1.49018 1.38327
7482 1 1 8.05884 5.18124 1.82958 1.75234
1224 1 1 9.89424 6.24874 2.02719 2.755
1790 1 1 10.2713 6.04732 3.29799 4.91078
277 1 1 8.61104 6.0894 2.30426 0.852185
6497 1 1 7.5728 7.02406 2.41163 1.51615
6044 1 1 12.7396 6.00813 3.02375 2.0206
1537 1 1 13.9684 6.05573 2.67084 2.95829
486 1 1 13.4146 6.75433 2.20981 4.40319
374 1 1 13.6782 4.85538 1.56012 0.801999
1377 1 1 14.541 6.06402 1.33537 0.942973
223 1 1 14.423 6.9738 2.58697 2.88042
651 1 1 16.3479 6.31345 1.97751 1.12756
235 1 1 17.4645 6.80171 2.51361 0.272983
573 1 1 18.6657 6.16394 2.17901 1.27431
7358 1 1 0.90081 8.14524 2.60913 0.0827637
5817 1 1 2.25326 8.07469 2.5835 4.47115
158 1 1 3.30269 8.01376 2.97003 1.07057
842 1 1 5.02247 7.85849 2.80158 0.514866
1751 1 1 5.47442 7.454 1.53284 3.68569
6253 1 1 7.76845 8.3876 2.29756 1.85714
8000 1 1 6.39031 7.5031 2.25055 0.385045
1069 1 1 6.83221 8.31163 1.59991 0.86081
1217 1 1 7.8625 7.50919 1.48133 3.83558
2054 1 1 10.6172 8.58172 1.49142 1.27697
7644 1 1 10.0046 7.42881 1.9807 0.465736
21 1 1 11.5681 7.25955 1.60643 0.527885
675 1 1 13.7637 7.26742 3.37938 1.04363
1193 1 1 14.8863 7.47476 1.92471 0.976796
498 1 1 14.6573 8.12423 2.71889 1.31566
140 1 1 15.7365 7.69716 2.47565 3.52134
550 1 1 15.0791 8.33584 0.60783 4.37345
2587 1 1 15.3546 8.39042 1.78557 0.861275
622 1 1 16.6132 7.4467 2.20109 1.06652
645 1 1 18.153 7.39321 2.07623 1.30466
6675 1 1 17.7644 7.69919 3.26254 0.974019
7966 1 1 0.787782 9.3236 2.34802 2.18345
1290 1 1 1.08046 10.1214 1.65202 3.04538
7803 1 1 2.42856 8.92763 2.10885 1.99951
7731 1 1 4.24234 9.3537 1.39691 1.1812
7841 1 1 2.84313 9.69334 2.6578 3.39034
6578 1 1 5.19346 9.64864 2.45219 0.778978
1264 1 1 7.01842 8.99521 0.622603 2.93152
6665 1 1 6.01141 9.70548 1.5005 0.548832
7721 1 1 6.95755 9.64434 2.1517 0.814745
568 1 1 8.53497 8.77382 2.8679 0.819165
610 1 1 8.87193 9.18227 1.93585 2.42332
955 1 1 11.3497 9.13236 2.31465 0.00356035
738 1 1 12.5757 8.94592 1.73798 2.20479
6686 1 1 13.7543 9.6348 0.656455 2.34628
7634 1 1 13.7843 10.4961 2.4142 1.13388
7795 1 1 15.9739 9.56223 1.20684 2.68738
38 1 1 15.4722 9.98358 2.42147 2.10981
423 1 1 16.6776 10.2029 1.84321 2.88326
7432 1 1 16.1753 9.12147 2.73824 1.70647
1360 1 1 18.5699 9.40406 2.82612 1.61358
3472 1 1 18.7566 9.9552 1.69059 5.51733
1677 1 1 18.5235 8.27543 2.57099 0.285221
663 1 1 17.9828 9.13021 1.85913 2.35914
7851 1 1 1.73418 11.8696 2.51468 0.685978
2638 1 1 0.886617 11.2611 2.07537 2.60384
1917 1 1 2.34116 10.6186 2.96876 0.850319
1318 1 1 1.83514 10.8592 1.97004 0.725368
452 1 1 3.89361 10.5101 2.43562 0.780735
2357 1 1 5.44821 10.6779 1.20066 0.755994
1863 1 1 6.38989 11.7668 0.788623 1.95058
630 1 1 7.32995 10.9307 1.51388 0.398379
1968 1 1 9.29357 10.5778 3.33287 2.10845
1504 1 1 9.3454 10.2687 2.23111 1.41758
2150 1 1 11.353 10.2519 2.14971 0.780192
708 1 1 12.4009 11.2794 1.77774 0.95625
201 1 1 14.2085 10.9273 1.36745 1.06209
969 1 1 16.098 11.2838 2.49032 3.34994
1143 1 1 17.2746 11.0299 1.64456 0.0783666
7128 1 1 18.7743 11.2198 1.78142 0.256793
300 1 1 0.671605 12.117 1.67039 0.867837
7729 1 1 1.58285 12.936 2.25353 5.85892
1727 1 1 2.44267 12.8965 2.71017 0.59411
133 1 1 4.17499 11.6395 2.31197 0.977541
1528 1 1 5.43736 13.1526 2.48555 0.556175
945 1 1 5.21176 11.7408 2.44745 0.679481
1210 1 1 6.51089 11.7973 2.63349 0.113401
6584 1 1 7.83389 13.2001 2.56189 2.51503
342 1 1 8.35262 11.6235 1.85339 0.794265
1385 1 1 10.2511 11.3625 1.94187 0.536231
433 1 1 11.303 12.0783 3.18573 2.05542
6939 1 1 11.1343 11.0656 1.54898 1.88578
778 1 1 11.7337 12.2041 1.93767 1.17656
6567 1 1 14.0746 11.5467 2.39405 1.31136
7893 1 1 13.3799 12.5711 2.26614 1.54185
596 1 1 15.1544 11.7939 3.14651 0.42743
1189 1 1 14.8123 11.904 1.7063 1.58465
7089 1 1 17.158 13.3011 2.5288 0.302325
1836 1 1 17.3 12.2679 2.49352 0.881911
1280 1 1 18.103 11.406 2.92812 0.863263
259 1 1 0.507373 13.7647 2.97528 0.919412
7047 1 1 2.58682 13.1227 0.794522 1.2235
234 1 1 2.24173 13.8475 1.96481 1.9902
1448 1 1 2.38999 14.2401 2.86857 1.0403
7961 1 1 4.3253 12.865 1.95681 3.90151
6379 1 1 4.55196 13.8935 2.33649 0.95493
299 1 1 4.94741 13.254 1.21946 0.322999
481 1 1 6.09164 14.1611 2.34619 0.629632
7678 1 1 7.15163 14.2467 2.12541 1.41564
7035 1 1 8.37817 13.9002 3.04964 2.75566
769 1 1 9.54573 13.1483 2.1828 5.11506
7266 1 1 11.0241 12.7098 2.50304 3.80536
7856 1 1 11.4678 13.928 2.63736 0.759719
338 1 1 13.0984 15.0138 1.47935 2.19469
1617 1 1 12.1473 12.8024 2.95265 1.44047
1017 1 1 13.9868 13.5848 1.65962 3.93478
629 1 1 15.0344 13.8243 1.68383 1.23375
7999 1 1 15.8022 12.6522 2.00905 0.268981
255 1 1 16.7502 12.9003 1.02542 2.86904
2974 1 1 18.1504 13.6373 2.59418 2.70735
6833 1 1 17.6717 13.4338 1.54502 1.53614
1042 1 1 1.37572 15.3827 1.34343 1.00516
7772 1 1 0.561373 14.7531 1.56018 1.81549
1340 1 1 0.698037 15.4739 2.36027 1.90183
6459 1 1 18.3924 16.1605 2.31498 2.40285
1676 1 1 2.03589 15.2871 2.13285 0.74741
4804 1 1 3.00922 14.3482 2.13867 1.81798
1651 1 1 4.95136 15.8148 2.78836 0.0616657
7405 1 1 6.55919 15.1874 2.20545 1.55578
1416 1 1 8.94542 15.7195 0.848399 0.758466
6321 1 1 7.49565 16.1049 1.91783 1.9779
815 1 1 7.65487 14.8118 2.95648 1.21317
2347 1 1 9.31109 14.1177 2.09666 1.48212
2046 1 1 10.5769 15.7857 2.27688 3.28902
7950 1 1 12.9274 15.562 3.34539 0.600842
1077 1 1 12.3715 16.1051 2.56472 0.503722
89 1 1 11.5681 15.3606 2.03399 0.521191
7444 1 1 14.2056 14.1918 3.69118 1.76625
1269 1 1 13.9869 15.9998 1.47095 0.17615
1110 1 1 14.1332 14.4792 2.06294 0.480004
336 1 1 15.1856 14.5802 2.59239 1.31025
1614 1 1 14.8282 15.227 1.49391 2.20853
1170 1 1 16.8254 14.148 1.80672 1.06417
1367 1 1 16.9525 15.6246 2.09062 0.505613
1984 1 1 17.6264 14.7633 2.38065 0.484264
1652 1 1 18.7552 14.7323 3.49667 1.29789
5605 1 1 1.01159 16.7639 2.02775 0.941502
157 1 1 0.495389 16.6068 2.9233 1.90349
549 1 1 1.94604 16.2738 1.45257 2.19135
1128 1 1 4.07982 15.3065 3.12884 1.7562
3499 1 1 3.41833 15.4122 1.50414 0.873299
6280 1 1 3.59485 16.35 2.25628 0.322696
687 1 1 6.43364 16.4228 2.83235 1.19303
7303 1 1 4.9265 16.7865 1.45675 1.53078
6688 1 1 5.82614 16.5029 1.89948 1.68026
898 1 1 8.44492 16.3157 2.17943 1.216
1453 1 1 11.5359 16.4162 1.72903 0.150128
6582 1 1 10.5271 16.8329 2.55739 0.513173
343 1 1 12.3231 16.8329 0.932166 1.68849
990 1 1 12.3754 17.3072 2.09235 2.27593
1139 1 1 13.5251 17.0592 2.20759 0.35197
1604 1 1 15.1455 16.1788 3.04016 2.50403
1070 1 1 16.1007 16.8931 1.88201 1.77789
7826 1 1 18.7521 17.07 1.76976 1.18226
7847 1 1 17.6736 17.4934 2.20833 0.243531
7951 1 1 1.70145 18.269 2.65925 1.1732
18 1 1 0.759982 17.9977 2.03762 3.16775
7454 1 1 2.70339 16.8983 2.43306 0.232305
531 1 1 4.54325 17.3011 2.23304 0.337533
1147 1 1 5.74618 17.4922 1.29481 1.05361
1466 1 1 8.9025 18.04 1.62073 1.6742
490 1 1 7.30958 18.7425 2.4649 3.47493
32 1 1 8.15103 17.1997 1.66146 1.44463
62 1 1 8.38751 17.2923 2.77311 2.77611
961 1 1 9.87038 18.0839 2.01346 1.09219
7821 1 1 9.4652 17.4166 2.82352 2.79308
55 1 1 11.1199 17.7685 1.96403 0.983829
1616 1 1 11.9543 18.5076 2.37894 2.17318
505 1 1 11.7578 17.6584 1.22076 0.268048
2348 1 1 13.99 17.9626 2.34886 0.779896
409 1 1 13.5545 18.6087 1.53072 0.278014
6824 1 1 16.2278 18.8048 2.6773 1.20293
670 1 1 16.5636 18.1866 1.97396 0.933237
6430 1 1 18.2805 18.3658 1.78581 1.13689
7434 1 1 0.112527 17.952 2.89347 1.86834
910 1 1 1.33375 1.43646 4.33753 2.76544
7947 1 1 0.854652 1.42966 3.44259 4.85016
7451 1 1 1.9352 1.01804 3.17181 2.16445
1902 1 1 3.592 1.21263 3.75878 0.260791
2365 1 1 5.12756 0.577065 3.8332 3.42771
656 1 1 6.08354 0.981977 3.42727 0.185093
902 1 1 6.90353 1.65406 4.38123 4.1306
7818 1 1 9.80415 0.0950725 3.16342 3.25134
1781 1 1 8.75489 0.717148 2.68527 1.74223
676 1 1 8.86876 18.4886 3.0951 3.5864
2204 1 1 11.2255 0.423655 2.91956 1.81393
2208 1 1 10.7977 0.469917 4.53907 1.01505
164 1 1 11.8831 0.553675 3.91865 0.162748
147 1 1 12.6362 18.1245 3.48432 2.31009
1473 1 1 12.8902 0.0192422 2.62025 0.87075
7669 1 1 15.2125 0.546111 2.93059 2.16344
807 1 1 17.2542 0.71911 2.82494 0.877743
7830 1 1 16.498 1.42708 3.08222 0.177989
881 1 1 17.5025 0.874981 3.96114 3.02367
2134 1 1 18.2372 1.59321 3.61274 0.592292
1909 1 1 18.491 0.630622 3.33549 2.50504
2066 1 1 1.64126 2.62335 4.32149 0.215733
7188 1 1 0.556069 3.50306 4.84018 2.52792
1654 1 1 2.23564 1.94358 2.66378 0.962188
686 1 1 2.55379 3.72007 3.60301 1.9899
96 1 1 3.22309 2.20331 4.07518 3.01814
1322 1 1 5.22005 1.52256 3.11253 2.3512
148 1 1 5.85932 2.15337 3.85336 1.33427
729 1 1 4.43395 1.89887 4.05125 0.00853884
6922 1 1 8.19681 2.44475 4.13916 0.296733
1543 1 1 8.33295 1.0396 4.09243 0.634053
7934 1 1 7.89191 2.15817 3.02309 0.422752
544 1 1 10.2194 1.89599 3.15459 1.12318
6942 1 1 8.96735 2.34612 2.76817 0.795384
61 1 1 10.9655 1.16305 3.63126 0.767534
1291 1 1 12.034 1.54905 4.04033 0.264236
822 1 1 13.7545 1.18302 3.0199 0.124676
479 1 1 13.0658 1.64774 3.60336 0.17388
1239 1 1 13.3238 2.77854 3.16323 0.777405
149 1 1 15.8319 2.32551 2.72206 0.387976
772 1 1 15.0248 1.71637 3.13544 0.69808
1826 1 1 14.1186 1.95398 3.59556 1.85365
519 1 1 15.0123 2.88933 3.026 0.323279
914 1 1 17.0462 2.26478 3.99221 2.23443
1354 1 1 17.4612 2.05182 3.06401 0.68556
965 1 1 18.2774 2.5795 4.11289 0.294044
7887 1 1 0.165888 2.02623 2.86171 0.130531
845 1 1 1.29978 3.63567 3.79756 1.05081
1738 1 1 1.6387 2.88675 2.98742 1.57745
109 1 1 2.03167 4.72369 3.43537 2.88214
692 1 1 3.48133 4.30221 4.34776 1.31304
7366 1 1 5.85825 3.90101 4.04153 0.329526
7215 1 1 5.59504 3.18559 3.09515 0.45709
7861 1 1 8.9519 3.17033 3.33464 0.182938
125 1 1 7.92621 3.18097 3.45912 4.63389
5799 1 1 10.1324 3.08294 3.40476 1.32919
1302 1 1 10.4773 4.23567 3.25647 0.290097
2191 1 1 11.4911 4.22082 3.47745 0.865776
7322 1 1 11.5292 2.85813 3.57763 1.28756
7532 1 1 12.4242 2.60522 4.22427 1.04729
98 1 1 12.9375 3.85633 3.90169 2.71345
1450 1 1 13.9691 3.89399 3.87714 1.02667
7758 1 1 16.076 2.82964 4.66731 1.52283
588 1 1 14.8866 4.06917 3.58265 2.03321
2793 1 1 15.9059 4.38651 2.52347 2.37661
1336 1 1 16.0012 3.79219 3.76148 0.649518
7595 1 1 17.8921 3.26102 3.387 0.428922
7202 1 1 0.377226 3.90035 3.32935 0.886124
115 1 1 18.6197 3.93822 4.30663 0.883743
774 1 1 0.0599243 5.09146 4.05803 1.10969
7791 1 1 0.876531 4.97743 3.24544 2.2405
2033 1 1 1.74819 5.64687 3.87886 2.3694
2044 1 1 3.32624 5.0989 3.61035 0.0741789
799 1 1 3.35734 5.42909 4.73812 2.5921
489 1 1 4.23849 4.53208 3.62507 1.68799
188 1 1 6.80099 5.592 3.43619 0.161652
580 1 1 6.65985 4.39475 3.14901 0.307445
7251 1 1 6.50221 4.56918 4.48783 0.131145
1850 1 1 8.18557 4.90164 3.36699 0.018237
6566 1 1 8.82292 4.20774 3.72478 0.358514
5747 1 1 7.99793 4.00693 2.87591 1.3722
6996 1 1 9.42433 4.12728 2.83539 1.93733
1025 1 1 9.91158 5.44781 4.01444 1.72555
1585 1 1 11.1278 5.18724 3.99556 0.539536
6470 1 1 12.6753 5.04109 3.68067 0.452205
7782 1 1 12.9847 6.0716 4.0812 0.855599
2139 1 1 13.9159 4.667 2.57273 0.897509
1422 1 1 14.3268 5.07865 4.29327 3.28033
1213 1 1 15.4851 4.90172 4.08434 0.427421
7579 1 1 14.75 6.0211 3.46902 0.688604
6719 1 1 16.0866 5.47703 3.6333 1.83015
7659 1 1 17.5661 5.34483 3.74626 1.02115
383 1 1 18.0079 4.06651 2.63758 0.733666
72 1 1 1.12745 6.05345 2.5801 0.564868
913 1 1 18.8098 6.976 3.54734 1.85257
608 1 1 2.01717 6.51581 2.65077 0.233924
6159 1 1 1.7079 6.75603 4.13284 0.98655
509 1 1 4.02793 5.8879 2.88763 1.65495
2917 1 1 2.71687 7.09965 3.19615 2.34437
7601 1 1 2.80258 6.08469 3.53777 0.397868
3 1 1 4.24017 7.67955 3.59562 1.46207
1002 1 1 4.45251 5.62741 3.93268 1.07808
217 1 1 5.98237 7.13013 3.75227 0.128928
6477 1 1 6.76825 6.97058 3.07555 4.02415
985 1 1 5.96226 6.18875 3.30609 0.125491
7387 1 1 9.03112 5.53346 4.61643 0.196885
7683 1 1 7.83501 6.75889 3.71432 0.208279
7685 1 1 7.9259 5.26016 4.38031 0.196794
2855 1 1 9.86617 6.75201 3.96387 1.01539
6619 1 1 11.1783 6.68432 3.13862 0.98702
7850 1 1 10.9423 6.5653 4.49684 0.482665
7725 1 1 12.6213 6.99241 3.9575 3.73383
1203 1 1 15.6394 6.58712 3.06221 1.78348
102 1 1 17.7077 6.62963 3.81555 0.70396
538 1 1 0.472382 7.16931 2.63125 0.523392
1757 1 1 0.127913 8.10071 3.47009 0.382231
802 1 1 1.56047 8.74993 3.42886 0.405434
926 1 1 1.51009 7.20135 3.08247 0.268896
1275 1 1 2.20385 7.93382 3.78954 0.618373
7326 1 1 4.01367 8.68558 3.58387 0.882527
7242 1 1 3.34191 7.33992 4.17935 4.48323
153 1 1 5.1389 8.2799 4.15166 0.582207
1547 1 1 6.18615 9.32829 3.92873 2.14843
6971 1 1 5.84995 8.28153 3.28742 2.83232
1475 1 1 8.43987 7.50071 3.09034 1.17794
408 1 1 6.98267 8.21335 3.02622 1.30008
7335 1 1 9.73549 7.8802 2.98336 0.0928043
1809 1 1 10.2433 8.56513 3.69896 0.718021
557 1 1 13.478 7.55591 4.61538 0.0404743
2798 1 1 15.9001 7.32119 3.8469 0.206733
2151 1 1 16.7614 8.11609 3.58474 0.707333
1079 1 1 0.830052 9.39695 3.81107 0.277331
1728 1 1 1.76601 9.47584 2.67166 2.42943
634 1 1 2.07232 9.54141 4.02286 3.33635
1005 1 1 2.88139 9.15735 3.57304 3.1251
715 1 1 3.68654 9.84073 3.12324 0.908852
440 1 1 4.99302 8.95643 3.17775 0.475209
345 1 1 7.14483 9.58429 3.55301 0.80742
154 1 1 8.09781 9.6342 4.10272 2.82054
1194 1 1 9.26714 8.63912 4.11643 1.82336
1295 1 1 9.96464 9.5132 3.73161 3.36882
825 1 1 11.1642 10.442 4.27704 1.62405
1833 1 1 11.1448 9.35211 3.52097 1.34154
572 1 1 12.121 10.0063 4.07235 0.880936
7739 1 1 14.1312 10.7009 3.66576 3.0777
1802 1 1 14.0629 8.94166 2.37318 4.72015
7085 1 1 14.6833 9.55856 2.92741 0.521481
790 1 1 15.1247 8.74034 3.45816 0.846663
667 1 1 16.0655 9.28134 3.77848 0.772498
1709 1 1 17.88 8.79878 3.47453 4.14876
3565 1 1 17.4681 9.78403 4.20646 2.73919
1287 1 1 1.39782 11.4197 3.37774 2.05402
1349 1 1 3.29212 10.7129 3.46131 1.75203
6563 1 1 2.84825 11.8827 2.31156 1.83772
7130 1 1 1.83074 11.2378 5.82478 4.40561
6196 1 1 4.16005 10.4121 4.07566 1.20593
146 1 1 5.46764 10.3181 4.44227 1.08929
840 1 1 4.9753 10.815 3.0695 4.10868
5697 1 1 5.70343 10.6589 2.24154 0.409089
529 1 1 5.91774 9.08665 2.69877 0.983387
95 1 1 6.84985 10.5403 2.62342 1.85525
7459 1 1 6.67273 10.6197 4.05924 0.0535837
823 1 1 8.60521 9.934 3.01879 1.03696
487 1 1 7.95538 10.6547 3.78299 1.27089
7139 1 1 8.20221 10.9725 2.73454 1.9552
1940 1 1 10.1862 10.4471 4.02828 0.326732
1487 1 1 8.97466 10.1303 4.38837 1.9047
416 1 1 12.2513 9.81684 2.99821 5.78563
1199 1 1 12.553 10.8129 3.21867 2.0797
7156 1 1 14.6357 11.5201 4.09797 2.7195
7004 1 1 15.5495 10.2316 3.60421 2.62273
1426 1 1 16.0657 10.1817 4.73945 1.84681
1000 1 1 0.474422 10.6213 3.15135 0.618014
2621 1 1 0.0920981 10.2209 4.10418 1.65646
6762 1 1 0.914673 12.3019 3.07764 0.36641
2329 1 1 2.30224 12.1976 4.82023 0.457794
7717 1 1 3.32375 13.036 4.37119 0.280966
7755 1 1 3.30548 12.3284 3.2558 1.93433
6842 1 1 4.68182 11.9606 3.4973 1.5054
699 1 1 5.69899 12.4331 3.95076 1.79134
2732 1 1 6.48229 12.8041 3.32737 1.31046
7704 1 1 8.63968 12.0583 3.0321 2.56164
1920 1 1 10.1999 11.9715 3.4229 1.7597
640 1 1 11.0411 11.3015 3.78886 0.591096
7531 1 1 11.1872 12.6163 4.31143 4.53243
221 1 1 11.6533 11.1096 2.61965 1.74206
1100 1 1 13.0955 13.1355 3.27609 0.17747
7798 1 1 13.6873 11.5669 3.71103 1.11474
7040 1 1 15.1899 13.5209 2.9394 1.91033
1493 1 1 15.9221 11.5556 3.9902 1.28016
1184 1 1 16.8771 11.8642 3.34326 4.3589
888 1 1 16.4475 12.9971 3.838 3.16218
1024 1 1 17.9098 10.9132 3.89453 2.88599
986 1 1 18.4468 12.4309 4.2775 2.24712
2277 1 1 0.735411 13.4057 4.33858 2.64473
204 1 1 0.907286 14.3825 3.65244 0.560276
1233 1 1 18.5595 13.796 3.96002 1.40508
203 1 1 1.71957 13.1706 3.44153 0.670735
7621 1 1 3.91281 14.2632 3.31046 0.43061
178 1 1 3.11535 13.4602 3.28463 1.2677
7811 1 1 4.40229 12.9034 2.90263 1.86447
584 1 1 4.33732 13.3493 3.90954 0.880024
245 1 1 5.81777 14.6672 3.75525 3.18833
1505 1 1 6.55978 13.3988 4.28885 0.698268
1853 1 1 6.82904 14.0157 3.18964 0.699138
7489 1 1 8.36025 14.0287 4.09456 1.63529
906 1 1 9.33436 12.614 3.45624 0.934284
2032 1 1 10.2554 13.6086 3.9475 0.0780256