ITEM: TIMESTEP
2000
ITEM: NUMBER OF ATOMS
8000
ITEM: BOX BOUNDS pp pp pp
0.0000000000000000e+00 1.8820720577620570e+01
0.0000000000000000e+00 1.8820720577620570e+01
0.0000000000000000e+00 3.7641441155241139e+01
ITEM: ATOMS id mass type x y z v_temp
351 1 1 0.788121 1.25797 1.23128 2.21441
1198 1 1 1.81038 0.3298 0.227605 0.659375
1116 1 1 2.8176 0.0196352 1.41963 1.9549
6280 1 1 2.28606 1.25218 1.0678 0.128745
6076 1 1 5.09427 1.26193 0.6188 3.09747
7613 1 1 4.87859 0.338624 1.14072 1.77651
775 1 1 6.36438 0.724393 1.13806 2.73619
6363 1 1 6.41838 1.12561 0.0412536 2.97964
175 1 1 8.23468 1.00383 1.38689 0.338459
934 1 1 8.182 0.657794 0.312264 0.313791
1416 1 1 9.13473 0.41291 1.04667 0.551975
6582 1 1 9.62101 1.12605 0.560131 3.13906
1139 1 1 10.8757 0.703599 0.679447 0.841895
7873 1 1 12.3692 1.04344 1.12081 1.07398
352 1 1 12.8776 0.0698485 0.0966564 0.825277
1377 1 1 14.3427 1.30342 1.17534 2.0228
7568 1 1 13.7022 0.408434 0.807055 2.14735
1186 1 1 15.4889 0.258008 1.32105 0.443176
1265 1 1 15.3813 1.22259 0.758053 1.58445
126 1 1 16.8969 1.0491 0.972996 0.146912
791 1 1 17.044 0.13215 0.419764 0.663046
1999 1 1 18.0249 0.0706235 1.2424 0.36401
383 1 1 17.4217 1.22441 0.0587577 2.59438
7930 1 1 18.1595 1.21624 1.0051 0.163836
6845 1 1 0.193098 1.68899 0.530878 2.04792
31 1 1 1.58249 1.99804 1.06635 0.827826
1739 1 1 1.70717 2.4457 0.143845 1.6452
7604 1 1 3.21758 2.09948 0.484531 2.9335
155 1 1 4.01662 2.03606 1.38845 3.55539
7785 1 1 5.52818 2.12494 0.997723 1.43913
1446 1 1 7.58063 1.61198 0.623576 1.51453
217 1 1 7.54651 2.76711 0.908503 1.02013
418 1 1 9.08927 1.92644 0.467245 0.143038
726 1 1 10.3135 2.21465 0.636419 0.84863
2348 1 1 11.1111 2.23303 1.19119 0.3376
1333 1 1 12.4058 2.26374 0.0510373 1.13199
515 1 1 12.4935 2.19583 1.29126 1.2285
7745 1 1 13.1065 1.50432 0.334531 3.40284
1270 1 1 13.5255 2.16899 1.22273 0.946981
6850 1 1 13.9059 1.94054 0.117181 1.05346
1037 1 1 15.5665 2.23149 0.819124 7.19905
1315 1 1 16.8629 2.33459 1.00129 2.79529
6006 1 1 1.18686 3.22976 0.539326 2.12379
508 1 1 2.79702 3.11888 0.810954 0.311137
1045 1 1 1.63032 4.01202 1.34327 0.757686
875 1 1 3.26552 4.02546 0.689826 0.832119
7718 1 1 4.78343 3.96534 0.778866 1.77461
6152 1 1 4.65346 2.96505 1.21964 1.37754
1348 1 1 5.59457 3.37819 0.171198 1.35424
6026 1 1 5.53498 3.64985 1.44127 0.961919
1850 1 1 6.63948 4.11197 0.575648 0.454526
1381 1 1 8.47295 3.56259 0.0539991 0.345862
7861 1 1 8.86434 2.92186 0.753952 1.1803
7032 1 1 10.3172 3.91643 0.590343 0.619403
1661 1 1 10.8003 3.36287 1.38996 1.10277
7588 1 1 12.1182 3.22134 0.744224 0.610239
6060 1 1 12.1041 4.26886 1.11746 5.80852
1806 1 1 14.2065 3.141 0.68363 0.878231
7155 1 1 13.3062 4.30017 1.02447 3.24228
437 1 1 13.8041 3.95847 0.0448022 0.264947
7301 1 1 15.1583 2.91304 0.100791 1.59109
2221 1 1 15.2384 3.89657 0.281331 1.27925
7468 1 1 15.8827 3.50833 1.31424 1.43294
5355 1 1 16.1404 3.05112 0.438848 2.0683
223 1 1 17.4882 4.11886 0.088556 3.58509
2033 1 1 18.4685 3.72302 0.918651 2.26724
1401 1 1 1.59189 4.50183 0.21623 3.50025
7697 1 1 2.7169 5.1205 0.0847795 0.218064
936 1 1 3.99558 4.495 1.43525 0.794669
7904 1 1 4.78933 4.9615 1.11384 1.44184
582 1 1 6.2207 5.00272 1.02036 3.31017
6922 1 1 8.62526 5.05167 0.40607 0.843368
7748 1 1 8.10378 5.60221 1.39397 0.0708653
7387 1 1 8.07121 4.40642 0.859037 4.76876
6703 1 1 9.42297 5.05552 1.23475 1.00902
6551 1 1 10.8394 5.06218 0.0967707 0.208627
7408 1 1 11.7831 4.51433 0.000159948 1.05146
6044 1 1 12.7532 5.17992 1.44172 0.0513434
271 1 1 14.0664 5.5584 1.00849 1.90565
7320 1 1 14.2263 5.02994 0.0996734 2.88241
7115 1 1 14.8068 4.64507 0.931613 0.393092
1329 1 1 15.9318 4.49908 0.710283 6.99617
103 1 1 16.6984 5.09847 0.954424 4.31982
7091 1 1 15.9308 5.74629 0.813443 1.73249
7717 1 1 17.629 4.64318 1.01839 1.072
6161 1 1 18.7765 5.56632 0.421806 1.76873
137 1 1 17.6593 5.72419 1.09228 0.71094
7507 1 1 0.228217 6.67396 1.0364 0.592049
1409 1 1 0.93131 5.98559 1.3176 4.83168
7942 1 1 0.0414861 7.07386 0.0172885 0.32571
6971 1 1 0.992421 6.51987 0.341168 2.99342
72 1 1 2.28741 6.7629 0.366714 1.49608
190 1 1 3.98167 5.91022 0.528284 1.41278
6605 1 1 3.47313 6.93217 0.866463 0.212969
7215 1 1 5.51759 5.89773 1.20171 2.30799
294 1 1 4.99916 5.87823 0.251724 3.97989
7944 1 1 5.10703 6.87164 0.999006 2.11705
5747 1 1 7.11176 6.18861 0.536576 0.791308
429 1 1 8.04278 6.52459 0.860111 1.2345
7094 1 1 10.1314 6.80339 0.786155 3.4845
21 1 1 9.92541 6.02635 0.019471 0.685525
61 1 1 8.954 6.58312 0.470795 0.580988
6619 1 1 12.8842 6.72278 0.909808 2.92322
550 1 1 11.6842 5.86014 0.0748213 1.31401
533 1 1 11.681 7.21382 1.34471 0.846823
1664 1 1 13.7249 6.46441 0.443773 1.90209
486 1 1 14.3465 6.46153 1.29943 0.780835
591 1 1 15.5515 7.10571 1.39402 0.677638
164 1 1 15.0126 6.13098 0.427717 0.533431
762 1 1 15.9376 7.06066 0.356936 3.96142
6476 1 1 16.8462 6.76589 1.29347 0.669821
5857 1 1 17.857 6.61638 0.431041 0.482225
354 1 1 4.3418 8.17352 0.85156 0.400297
6987 1 1 3.51425 7.98792 1.44359 0.391209
6874 1 1 6.72519 8.60167 1.33782 0.104477
1415 1 1 5.8168 8.05483 0.734131 0.864386
615 1 1 7.72126 7.63272 0.860643 0.379355
7740 1 1 8.91205 8.53192 0.700808 2.27227
7958 1 1 8.87706 7.81483 0.0100417 1.37755
973 1 1 10.7491 8.31015 0.991216 1.82762
6463 1 1 12.299 7.89563 0.494657 4.03071
91 1 1 14.2196 7.79277 1.44223 0.028756
1193 1 1 13.126 8.03488 1.29524 0.366961
276 1 1 15.3924 7.9556 0.420855 1.11516
5649 1 1 18.4683 8.66675 0.970835 1.24454
371 1 1 17.3975 8.33962 0.655056 2.37164
1360 1 1 1.18473 9.76317 0.565111 0.433006
6196 1 1 0.941764 8.80534 0.325 1.61346
6762 1 1 1.95562 8.92895 1.38215 1.05398
6126 1 1 5.05728 9.01615 0.135109 2.40117
834 1 1 4.72216 9.79623 0.768015 1.21167
7326 1 1 6.44698 9.04201 0.419118 6.21172
1681 1 1 5.86619 9.47908 1.29278 0.643437
6584 1 1 6.90484 9.92203 1.13335 4.86122
7065 1 1 7.58929 8.99401 0.474297 0.171353
7943 1 1 9.69802 9.36268 0.823573 2.51231
1781 1 1 8.91335 9.33425 1.3433 1.44583
6497 1 1 10.4202 9.97654 1.16193 1.25036
7866 1 1 10.4331 9.13932 0.180015 2.22518
6699 1 1 11.4911 9.50455 0.402519 0.196251
574 1 1 12.6164 9.78209 1.26133 4.2494
7266 1 1 12.2797 8.93811 0.688424 1.9334
7983 1 1 13.7873 9.99045 0.587099 3.22602
7021 1 1 15.5343 9.50605 0.944121 1.53694
6599 1 1 16.3177 9.65109 0.160978 0.895458
6159 1 1 16.7683 9.27097 0.997445 2.10022
86 1 1 17.9292 9.53794 0.183186 1.44365
7621 1 1 2.85377 10.8098 1.02792 0.439431
7967 1 1 2.01653 10.5844 0.358129 2.07393
7047 1 1 3.0886 10.2498 0.0455327 1.93257
6656 1 1 4.59463 10.6909 0.186627 0.085172
955 1 1 5.9516 10.7414 0.613719 2.01873
6842 1 1 7.83945 10.1874 1.43595 0.571925
7002 1 1 8.52026 10.4661 0.583516 3.10814
1790 1 1 7.2992 11.0364 0.788968 3.29488
6380 1 1 7.58276 10.3443 0.110278 2.14564
6933 1 1 9.27586 10.1481 0.00137788 1.62772
721 1 1 10.9429 10.6818 0.577946 2.73278
6752 1 1 10.4294 11.3584 1.05932 2.65715
6527 1 1 11.7455 11.2789 0.264061 0.56086
38 1 1 11.9812 10.5388 1.04221 0.458683
678 1 1 12.9205 10.8164 0.734121 3.81291
423 1 1 14.471 11.2553 1.3845 2.28216
1074 1 1 15.2516 10.4451 1.38731 6.01458
1068 1 1 14.5865 10.4876 0.134027 0.329801
969 1 1 16.2112 10.7018 0.0837103 0.984621
1349 1 1 17.6914 10.5608 0.791898 1.54514
634 1 1 18.3507 11.2957 0.853733 3.23033
7772 1 1 1.24429 11.5847 0.974853 0.593419
7836 1 1 0.490046 12.6419 0.412797 2.1049
7855 1 1 1.52039 12.589 1.07707 0.0560974
549 1 1 2.36988 11.7864 0.164327 0.34931
773 1 1 3.09719 12.6438 1.28142 0.336475
7056 1 1 3.82882 12.1622 0.203478 1.89045
8000 1 1 5.05371 12.7047 0.111703 0.941406
7854 1 1 6.10734 12.2591 0.480453 0.232569
1432 1 1 7.11881 12.8245 0.979433 1.4711
829 1 1 8.30388 12.5916 0.311409 1.53449
10 1 1 8.87761 11.7061 0.750764 0.486398
6399 1 1 9.6177 12.361 0.681446 0.567698
6939 1 1 11.4616 11.9706 1.00833 0.27187
1103 1 1 10.987 12.9668 0.476306 2.54481
236 1 1 10.8899 12.0929 0.0355567 1.0801
7548 1 1 14.3569 11.7124 0.255191 0.949322
2320 1 1 13.7728 12.3315 1.28746 1.85467
6590 1 1 14.5299 12.8798 0.31664 0.463835
7993 1 1 15.5017 11.7161 0.351767 1.67539
2353 1 1 15.4121 11.8096 1.33465 1.85592
7670 1 1 17.13 11.993 0.46401 1.69443
1676 1 1 16.099 12.4546 0.801813 0.532144
1567 1 1 18.2428 12.4285 0.295324 0.285337
7947 1 1 1.17462 13.4903 0.188642 0.488639
962 1 1 0.192574 13.0672 1.3271 0.488912
4804 1 1 0.0812499 13.5993 0.232613 5.44192
7957 1 1 2.04647 13.377 1.08895 1.77935
1350 1 1 3.66829 13.3784 0.690693 2.28266
7217 1 1 4.18343 14.2902 0.595933 0.593476
6232 1 1 5.56718 13.362 1.07775 0.912028
287 1 1 5.18674 14.4612 0.912387 7.13121
7248 1 1 6.23272 14.114 1.41672 1.18866
239 1 1 7.96829 13.709 0.842483 3.30501
1144 1 1 10.0015 13.4984 0.513599 0.795795
1295 1 1 9.20494 13.8816 0.983286 0.85846
976 1 1 12.6613 13.3398 1.20624 3.41708
7680 1 1 11.7926 13.7409 0.900496 3.53831
297 1 1 13.1935 14.4389 0.163074 0.920567
7052 1 1 14.8672 14.2023 1.08172 2.12666
7853 1 1 16.717 13.288 0.780954 0.96226
2409 1 1 18.3229 14.0609 0.974137 0.844036
7338 1 1 17.7108 13.1905 1.14985 1.52702
1529 1 1 0.246076 15.0158 1.24284 1.69047
7926 1 1 2.4741 15.5448 0.13524 0.905902
686 1 1 1.75449 15.3052 1.08094 0.425772
7101 1 1 1.67818 14.515 0.378483 2.72197
7454 1 1 2.77564 14.5637 0.0745169 0.360861
558 1 1 3.30946 14.7772 1.43963 0.847483
1481 1 1 3.51234 15.4112 0.346596 1.02565
844 1 1 4.89451 15.1005 0.226186 0.458197
1210 1 1 8.24013 15.1249 1.23907 0.954311
7891 1 1 10.0607 15.7488 0.674984 0.924406
7180 1 1 11.1984 14.6376 1.27315 3.00166
7543 1 1 12.2086 14.7044 0.521098 2.57209
389 1 1 14.1134 15.6298 0.798738 0.231013
432 1 1 13.1147 14.7313 1.15196 2.82599
653 1 1 15.2386 15.3213 1.15384 2.27999
393 1 1 15.8651 14.7715 0.468824 4.16068
7390 1 1 17.028 14.9883 0.292294 4.51111
1406 1 1 16.9113 14.9815 1.42961 2.02793
579 1 1 18.2383 14.8088 0.0259124 0.486322
7451 1 1 0.213436 16.3156 0.403709 5.41113
1569 1 1 1.10199 16.6585 0.0748306 4.14779
757 1 1 2.45317 16.5907 0.0882387 1.57615
7569 1 1 4.42823 16.6458 0.0184342 0.859828
1729 1 1 4.91875 16.3825 0.89681 0.838604
605 1 1 5.74622 16.924 0.604263 1.8404
1995 1 1 6.58268 16.0638 0.156352 0.567577
7303 1 1 6.62253 16.6159 1.19545 1.94383
1582 1 1 8.60603 17.2648 1.03142 3.52136
13 1 1 7.67205 16.8637 0.41138 3.02845
1206 1 1 9.98922 17.3514 0.592438 2.23792
6851 1 1 9.24972 15.9618 1.35172 0.697522
7452 1 1 10.8064 16.7796 0.690842 0.601788
7149 1 1 12.243 17.3364 1.2627 0.296115
433 1 1 12.5611 15.9924 0.608795 1.44075
7341 1 1 13.2629 17.2569 1.06478 1.31019
1110 1 1 15.5524 16.3838 1.33358 1.43989
356 1 1 14.5137 16.6539 0.953934 0.971066
629 1 1 16.4287 16.0418 0.703799 0.654782
1042 1 1 17.4813 16.0882 0.934154 0.516108
5999 1 1 17.7787 17.1373 1.12808 1.24558
7892 1 1 0.797727 18.1673 0.108778 2.10398
129 1 1 1.79854 18.1622 1.06828 2.4013
6688 1 1 1.84213 17.4194 0.376419 0.161151
692 1 1 3.90824 18.8087 0.771698 0.26071
6713 1 1 2.98729 18.2259 0.133246 1.08042
7404 1 1 3.08288 17.4556 0.746536 0.765178
835 1 1 5.11981 18.1041 0.880064 0.146891
6835 1 1 6.39797 18.5309 0.201484 1.21521
566 1 1 7.29371 18.648 0.929549 1.60766
6914 1 1 9.1792 18.2 0.29754 1.51565
5985 1 1 11.2408 17.8271 0.433865 0.443864
472 1 1 11.7004 18.6769 1.11682 4.48254
7672 1 1 13.5816 18.1343 0.733415 2.26684
2287 1 1 15.0776 17.5348 1.22878 3.01096
6092 1 1 14.6524 18.4838 0.663609 2.01656
7106 1 1 15.7794 18.1491 0.555246 0.0461065
7202 1 1 16.4078 17.4195 1.04334 2.61271
2662 1 1 17.1263 17.4092 0.138661 0.517385
7261 1 1 18.7267 17.4823 0.258606 1.64794
194 1 1 0.293855 0.184427 1.62986 1.69693
954 1 1 1.06743 0.881761 2.19369 1.75593
643 1 1 2.36561 1.41595 2.39259 3.09502
7818 1 1 4.24381 0.103445 2.20264 1.02163
3146 1 1 3.3961 1.28146 2.4372 1.7372
1279 1 1 3.11551 0.302169 2.39438 0.168467
7166 1 1 4.66824 0.880967 2.44813 1.36809
1140 1 1 6.40483 0.611773 2.80108 0.621852
895 1 1 7.25854 0.763647 1.82936 1.71822
700 1 1 9.90928 1.39088 2.87739 0.240789
6986 1 1 11.2576 0.682818 2.06174 2.21104
1708 1 1 10.1857 0.703131 2.0943 0.201287
505 1 1 14.3639 0.690258 1.99695 1.18962
2106 1 1 13.4154 1.17277 1.81932 0.838218
640 1 1 13.1148 0.32541 2.25562 2.58522
7440 1 1 15.4706 0.276222 2.48138 0.18918
1928 1 1 18.5995 0.114971 2.52778 0.572534
1672 1 1 18.8204 1.05989 2.65728 0.24751
7992 1 1 1.15471 1.87941 2.68669 1.21875
7938 1 1 2.05298 2.72349 1.89425 0.39089
656 1 1 3.91639 2.69498 2.18173 1.5081
489 1 1 3.11415 2.36314 1.45527 1.09203
1309 1 1 4.8959 2.09488 1.9968 0.722292
6942 1 1 5.65334 2.06446 2.67294 1.86036
7535 1 1 8.0808 1.56295 2.50494 3.0812
7332 1 1 7.37049 2.08198 1.7927 0.79421
6477 1 1 8.3208 2.72902 1.84374 0.522313
94 1 1 9.62774 2.40112 2.52048 1.80844
6659 1 1 9.2574 1.82084 1.53252 1.37589
82 1 1 9.84618 2.82541 1.485 1.34594
1993 1 1 10.8224 1.76167 2.31217 1.33915
511 1 1 12.9307 2.18364 2.36478 3.04349
1339 1 1 12.0218 1.48704 2.22093 2.40219
122 1 1 11.5834 2.54829 2.40182 2.32853
3071 1 1 13.9645 2.72915 2.07619 0.572176
1183 1 1 14.6906 2.13172 1.75307 2.88634
1591 1 1 16.8395 2.05876 2.84808 1.11339
149 1 1 16.2721 1.64646 1.55695 1.44245
1020 1 1 16.056 2.54067 1.85954 4.83776
7088 1 1 17.4319 1.5524 1.64557 0.314429
7841 1 1 1.09594 3.21601 2.68383 0.808539
366 1 1 0.910988 3.32367 1.51354 1.94846
406 1 1 2.73962 3.81853 1.75236 0.921151
509 1 1 2.26296 4.28828 2.6454 0.0051512
2824 1 1 3.70904 3.30033 1.46277 0.623538
3 1 1 5.51936 4.07178 2.4978 0.641317
1237 1 1 5.00001 3.21651 2.30573 0.162954
7503 1 1 6.3753 3.21727 1.62456 0.197147
7663 1 1 6.52099 4.01282 2.68059 0.987663
7653 1 1 8.5562 3.8368 1.84942 2.07608
661 1 1 7.51818 4.20126 2.25258 2.01617
56 1 1 7.43156 3.21322 1.90297 0.265439
570 1 1 9.61671 3.50335 2.73562 1.71258
3337 1 1 11.2987 4.26285 2.64209 1.34856
1648 1 1 10.4501 3.1227 2.33153 0.704958
980 1 1 12.439 3.24388 2.10286 1.61214
1239 1 1 14.3331 3.84058 1.46308 1.94269
6241 1 1 15.698 3.72755 2.52901 0.639762
651 1 1 16.6403 3.09386 2.60473 1.55574
115 1 1 17.1985 3.82139 1.63024 0.513867
7937 1 1 18.7796 3.54359 2.27675 1.00303
314 1 1 0.211288 5.49679 2.61448 1.58192
7284 1 1 1.22098 4.94698 2.1372 1.32599
7631 1 1 2.53017 5.34221 2.87734 1.82957
68 1 1 2.82286 5.39648 1.57621 0.274857
7660 1 1 3.43885 4.53188 2.44622 1.22603
1714 1 1 6.03537 5.30116 2.05925 4.10919
7643 1 1 7.59713 5.53886 2.55467 1.01943
7644 1 1 10.8838 4.49992 1.50181 0.641194
553 1 1 11.5788 5.11424 1.79693 3.49326
7348 1 1 12.5902 4.51922 2.12279 2.06897
588 1 1 12.3491 5.25599 2.84628 0.434351
1826 1 1 13.4302 4.79943 2.69648 0.796737
1833 1 1 14.3155 4.67366 2.06729 2.0684
469 1 1 15.5319 4.81481 2.17552 2.04934
7358 1 1 16.8962 4.80804 2.0626 0.116946
802 1 1 18.2822 5.369 1.70766 0.339833
7659 1 1 18.7738 4.46217 1.74877 1.70776
3092 1 1 17.564 4.91872 2.84683 0.735871
1287 1 1 0.279448 6.51303 2.05983 0.156998
5817 1 1 2.74087 6.42065 2.81802 0.984904
7242 1 1 1.87621 6.05356 1.99764 1.07516
7803 1 1 3.57557 5.97014 2.32659 1.8478
7738 1 1 4.17295 6.8803 2.4823 2.59555
1596 1 1 3.03196 6.8579 1.9328 1.31857
1427 1 1 4.1466 6.54002 1.55303 0.253571
214 1 1 6.59626 6.29844 2.8284 2.56882
1076 1 1 8.77695 7.08385 2.03208 2.84253
1369 1 1 9.72318 6.40009 1.84894 1.14079
117 1 1 10.9603 6.46024 2.21727 0.513922
7625 1 1 11.7533 6.18403 2.79473 0.0290277
7972 1 1 12.6256 7.15962 2.8128 0.245097
140 1 1 12.2582 5.99305 1.72009 1.60566
7719 1 1 13.6514 5.97635 2.2356 0.881832
7185 1 1 15.1635 6.23218 1.95545 3.10948
1537 1 1 16.287 6.74082 2.22926 0.339358
7544 1 1 17.0712 5.86021 2.23722 1.99838
6995 1 1 18.0343 6.98939 2.38335 4.70537
6975 1 1 0.405812 8.6855 2.78146 0.624056
1562 1 1 0.815935 7.69978 2.1592 0.359813
926 1 1 1.60098 8.44641 2.32852 1.04189
7472 1 1 2.53265 7.62157 2.68688 0.892783
925 1 1 5.04193 7.3482 2.25014 2.1091
529 1 1 6.49591 7.42788 1.93601 1.4251
1547 1 1 6.13341 8.438 2.34978 2.00009
1224 1 1 7.57745 7.72928 1.9652 0.68523
1194 1 1 9.1842 8.32959 2.12735 1.7915
1107 1 1 10.0935 7.40082 2.87283 0.93598
6566 1 1 9.77079 7.62177 1.70606 3.67534
519 1 1 11.056 7.76987 2.5444 1.81915
2244 1 1 11.8698 8.50011 2.2168 1.73213
277 1 1 12.8482 8.01774 2.23048 2.40737
5690 1 1 13.6294 8.6395 2.27829 2.77287
543 1 1 14.5081 7.34469 2.32203 2.35129
102 1 1 15.6158 8.17993 1.50595 2.48989
913 1 1 15.6749 8.42851 2.76471 1.07059
669 1 1 16.6701 8.54997 1.845 2.27679
6675 1 1 17.1526 7.66949 2.03056 0.281044
107 1 1 16.8937 8.63599 2.87057 0.338896
1036 1 1 0.852 9.24504 1.89805 1.86031
178 1 1 1.47108 10.0768 2.42848 5.29721
1863 1 1 4.33448 8.70541 2.6332 0.273487
369 1 1 4.31501 9.1097 1.61688 3.2266
2311 1 1 5.30514 9.49319 2.49257 0.0965918
1046 1 1 6.655 9.44602 2.16798 0.711575
238 1 1 7.99094 9.53003 2.33895 0.546198
985 1 1 10.0616 8.81486 1.77168 1.33441
7538 1 1 9.28657 10.0495 2.58508 1.79361
341 1 1 9.57138 9.11454 2.66298 2.21358
7156 1 1 10.6305 9.59457 2.08788 0.658844
610 1 1 11.3806 9.12568 1.49127 2.00482
1487 1 1 11.8667 9.423 2.69799 0.667924
7945 1 1 13.5335 9.48202 1.62898 0.378353
1906 1 1 14.6321 8.91676 1.88095 2.11578
79 1 1 15.9283 9.17847 2.14292 0.787018
247 1 1 18.2145 9.34192 1.89679 0.0745403
7851 1 1 18.57 10.0029 2.49529 0.515182
230 1 1 1.02027 10.7786 1.61811 0.943631
300 1 1 0.347594 10.9912 2.76956 2.10022
7966 1 1 2.77553 10.5231 2.80997 0.0409168
445 1 1 3.55556 11.0903 2.04729 1.95019
765 1 1 4.01955 10.1951 2.55839 1.09129
340 1 1 4.74008 10.3601 1.84618 1.47366
1264 1 1 5.09889 11.1865 2.27161 3.89245
481 1 1 6.31528 10.8672 1.63687 0.885718
1389 1 1 6.27094 10.9163 2.86931 1.12684
7335 1 1 7.29569 10.3614 2.29427 3.61608
4198 1 1 9.45981 10.92 1.78957 0.356926
1069 1 1 11.2776 10.2489 1.65796 0.766881
2814 1 1 11.0792 11.4023 1.82814 1.13908
1385 1 1 10.2649 11.1372 2.69461 0.75585
6693 1 1 12.9435 10.1578 2.18479 1.09273
386 1 1 11.9284 10.7481 2.74208 0.164717
7913 1 1 14.245 10.1889 1.75764 2.30496
374 1 1 14.0358 10.8163 2.44324 0.120514
818 1 1 15.2562 11.1214 2.48144 1.4549
1234 1 1 16.891 11.5583 2.04186 1.55582
7800 1 1 16.1394 11.0031 2.21321 0.809417
336 1 1 17.2198 10.3696 1.84586 0.216136
7089 1 1 18.4142 10.5588 1.53102 1.08149
259 1 1 0.530562 11.9966 1.60168 1.74049
245 1 1 0.707948 12.9954 2.42095 0.209625
7811 1 1 1.76769 12.0059 2.37432 3.85099
584 1 1 5.76333 11.9121 2.62595 1.699
704 1 1 4.93885 12.0301 1.69248 2.65022
769 1 1 5.43927 12.9307 2.43961 2.10503
6646 1 1 4.34948 12.8914 1.76605 2.72032
815 1 1 6.28562 11.9319 1.66138 0.751467
1542 1 1 7.72327 11.6418 1.6627 2.21517
7704 1 1 8.45396 12.9925 1.44876 0.342139
1475 1 1 8.20505 12.4478 2.33961 0.842831
7459 1 1 9.06958 11.6942 2.56435 0.678876
563 1 1 9.83922 11.9914 2.01058 1.87048
734 1 1 9.2956 12.7308 2.59256 0.502377
6723 1 1 11.5847 12.9777 1.84089 3.0491
7004 1 1 12.1976 11.8055 1.7642 0.645456
7834 1 1 13.5083 11.9499 2.70692 0.0838238
2150 1 1 13.1085 12.6982 2.0025 0.474934
627 1 1 15.1357 12.239 2.16865 0.509111
1514 1 1 15.814 12.9987 2.66662 1.07713
712 1 1 16.8646 12.9801 2.79291 5.25101
234 1 1 18.4791 12.9781 2.41337 1.86366
1082 1 1 18.4317 11.9859 2.36471 1.27755
1971 1 1 0.0501657 14.0553 2.11971 1.23195
6459 1 1 4.32144 13.899 2.62489 0.742107
7060 1 1 4.35458 13.8756 1.52812 2.80394
6600 1 1 5.40171 13.9264 1.88657 0.543723
487 1 1 6.56668 13.9801 2.51002 3.19931
365 1 1 7.67759 14.2734 1.60108 1.50304
53 1 1 7.94044 13.6914 2.83383 3.52455
1165 1 1 7.42764 13.2456 1.94503 3.01405
7984 1 1 10.0735 13.5697 2.3455 1.36078
286 1 1 10.4635 13.0829 1.49956 0.439451
416 1 1 12.0165 14.0209 1.98186 0.674028
6750 1 1 14.0882 13.3864 1.56746 0.385282
1187 1 1 13.7291 13.1719 2.71167 6.39651
1904 1 1 13.4871 14.4162 2.84922 2.79281
7444 1 1 16.0078 13.2829 1.56478 3.47315
375 1 1 17.3867 13.9427 2.21468 0.63284
1282 1 1 0.505408 15.6568 2.05768 0.990933
1561 1 1 2.70876 15.1464 2.14078 1.35263
785 1 1 3.81347 15.7048 2.03967 0.351991
504 1 1 5.01248 15.8784 1.87864 0.784107
1527 1 1 4.78237 14.9495 1.77337 1.31171
2046 1 1 5.78547 15.9235 2.64832 0.60528
7489 1 1 6.88694 15.0674 1.66035 1.18859
885 1 1 6.01345 14.8646 2.23404 5.31541
902 1 1 7.24324 15.177 2.70454 0.708099
1940 1 1 9.99295 14.6876 2.67785 0.121272
2224 1 1 11.233 14.9702 2.31692 4.94844
961 1 1 10.3121 15.4257 1.64314 1.47614
7893 1 1 12.4358 14.8046 2.46085 0.981894
7757 1 1 14.0506 14.9565 2.08793 0.385296
93 1 1 14.7822 14.7115 2.85113 0.360552
1077 1 1 15.2995 14.9049 2.0301 1.77375
1614 1 1 16.8267 15.3573 2.57253 0.0895922
7951 1 1 18.1626 15.1204 1.47496 3.47953
7116 1 1 17.7046 15.8303 2.49851 2.97549
439 1 1 2.60546 16.9953 1.51083 4.78126
1634 1 1 2.92517 16.9353 2.43887 0.811109
7934 1 1 3.92529 17.0366 2.3807 1.55846
763 1 1 7.67579 15.9498 1.87855 0.979381
7620 1 1 9.68553 16.2179 2.74393 3.57913
1196 1 1 11.1489 17.2319 1.61128 0.88396
338 1 1 10.7812 16.2921 1.85656 1.4432
1167 1 1 12.1723 16.157 1.61373 0.430135
7163 1 1 14.4332 16.2851 2.18351 0.230561
820 1 1 13.3575 16.3251 2.08118 1.51809
1308 1 1 14.8293 17.257 2.50657 1.7332
1479 1 1 15.8946 16.0681 2.27579 1.10648
1638 1 1 18.0127 16.7607 2.05864 2.11723
328 1 1 0.853699 17.4176 1.53927 0.912013
859 1 1 0.0528441 17.9315 1.72367 0.873608
611 1 1 2.73826 17.9193 2.7749 2.04038
6866 1 1 6.73346 18.6183 1.7438 0.385466
687 1 1 5.97056 17.4497 1.81203 0.686709
7300 1 1 5.81824 18.4313 2.29133 0.827968
1328 1 1 7.70355 18.1865 2.29635 4.63857
96 1 1 8.66895 18.6833 2.34482 2.6029
6079 1 1 9.90154 18.5382 1.7698 0.52809
173 1 1 8.86523 18.2505 1.52947 0.681817
7950 1 1 10.5211 17.7703 2.32853 1.66143
696 1 1 11.9628 17.7044 2.46965 0.524808
1616 1 1 12.6227 18.2801 1.69348 2.05225
20 1 1 13.4041 17.599 2.05531 0.885662
1588 1 1 14.3748 18.2117 2.86095 2.78779
6872 1 1 14.9392 18.3283 1.91323 2.84156
881 1 1 16.0609 17.7551 2.7848 11.3229
1269 1 1 17.1862 17.667 2.10583 0.0776252
7497 1 1 16.6088 18.4902 1.55518 0.112585
7744 1 1 17.1122 18.5598 2.68898 1.91189
1607 1 1 18.7288 17.4052 2.80756 0.536237
18 1 1 0.546103 0.735441 3.76221 2.03119
2026 1 1 2.1411 0.967164 3.3323 3.97273
547 1 1 3.73857 0.561638 3.18748 5.2807
1327 1 1 3.17899 0.580479 4.33198 2.45206
633 1 1 5.34288 0.836516 3.26146 1.4607
1738 1 1 4.89786 1.29027 4.13051 0.107286
2126 1 1 7.16582 1.17557 4.21455 0.742486
7982 1 1 7.94024 0.116437 4.0353 1.95309
1168 1 1 8.44837 0.783375 3.28073 7.4531
497 1 1 7.54774 0.787468 2.93867 3.18637
1579 1 1 10.7601 0.394552 3.70253 0.478292
7150 1 1 10.2215 1.22807 3.83734 2.30228
7821 1 1 12.0522 0.849334 3.51799 0.159275
7669 1 1 13.4574 0.860437 3.4176 1.89085
7980 1 1 14.3726 0.46478 4.30515 0.517126
2270 1 1 14.6574 0.952444 3.0503 1.21589
430 1 1 15.3453 0.849344 3.86731 1.51226
1413 1 1 17.3386 0.830819 4.13845 1.22927
867 1 1 16.4407 1.20154 4.23631 0.627997
7028 1 1 16.6341 0.697465 3.10957 0.933761
853 1 1 18.4124 0.359775 3.58247 1.31514
1443 1 1 17.6494 0.593804 2.98529 4.01078
879 1 1 0.742068 2.31032 3.72787 1.95933
2030 1 1 2.87697 2.0925 3.16197 0.872175
109 1 1 3.55605 1.4559 3.80444 1.634
7251 1 1 2.89732 2.78947 4.07874 0.520921
915 1 1 3.95824 2.46778 4.26159 2.75236
1543 1 1 4.68977 1.79597 3.04422 1.65211
1322 1 1 5.75374 2.4822 4.12603 0.258824
7989 1 1 6.86938 1.96597 3.41615 0.128287
454 1 1 7.94796 1.86138 3.83147 0.802128
1466 1 1 8.89725 1.64064 3.42411 1.42551
824 1 1 10.9623 2.1605 3.51044 0.268653
1213 1 1 13.0027 2.80541 3.11204 0.681626
906 1 1 11.777 1.8206 3.9667 0.344941
409 1 1 12.661 1.63203 3.38247 2.19104
2075 1 1 12.9917 2.33265 4.15727 2.88694
1473 1 1 13.8717 1.85815 3.29103 4.27475
1044 1 1 13.6059 1.47337 4.30788 0.234302
1223 1 1 15.8251 2.06583 3.03041 0.953251
387 1 1 14.9801 2.05042 3.50517 0.293877
7601 1 1 17.058 1.926 3.90604 1.23192
206 1 1 18.5509 2.26428 2.98302 1.0851
148 1 1 18.5565 2.20839 4.20503 0.252555
874 1 1 17.9096 1.52312 3.29646 1.55146
7280 1 1 0.276005 3.79152 3.55468 0.728147
1374 1 1 1.25372 4.21916 2.97267 0.556991
6648 1 1 2.33185 4.20029 3.70437 2.13403
774 1 1 1.81086 3.60258 4.23201 2.50149
7123 1 1 2.8787 3.51282 3.10984 0.771312
2917 1 1 1.83458 3.47545 3.18414 2.22152
1365 1 1 4.05899 3.96864 2.98863 1.44318
7921 1 1 5.26752 3.77588 3.49979 2.18385
7685 1 1 7.23591 4.12263 3.34589 3.54702
1488 1 1 6.44928 3.51401 3.66512 0.189492
2177 1 1 7.93532 3.5393 2.91748 2.20847
1208 1 1 7.66117 3.12798 4.15316 2.23574
544 1 1 9.82699 2.97374 3.70157 0.247909
623 1 1 10.285 4.14152 3.58122 2.18081
7010 1 1 11.6476 3.51786 4.15139 0.546571
446 1 1 12.3018 4.1528 3.48587 0.688027
2139 1 1 14.387 3.67126 3.08683 1.37286
2867 1 1 14.537 4.14369 4.19208 1.75295
1539 1 1 15.2782 3.11664 3.48519 2.30853
1422 1 1 16.6244 3.13935 3.79136 1.15084
7914 1 1 16.1187 4.01253 3.45546 1.21042
828 1 1 17.1848 4.0812 4.26575 0.918038
982 1 1 17.9313 3.96157 3.43098 1.09479
1041 1 1 17.7234 2.98503 3.06365 2.04316
47 1 1 0.106256 4.94106 3.39733 0.578073
1659 1 1 1.02236 4.5357 3.92623 2.02111
15 1 1 1.48398 5.1812 3.23322 0.77337
548 1 1 1.8915 4.97465 4.21532 2.21611
7924 1 1 3.19953 4.52604 3.54812 7.24716
125 1 1 4.45078 4.38173 3.81998 1.3198
1723 1 1 5.55525 5.04667 3.26808 2.40427
98 1 1 6.70378 5.392 3.30383 0.632096
2318 1 1 7.94029 5.13325 3.83665 1.93468
796 1 1 9.55982 5.52083 3.99002 1.90768
6136 1 1 8.77791 4.64127 3.38964 0.103719
7666 1 1 11.5479 4.67883 3.64607 1.88112
183 1 1 10.9254 5.32094 3.00254 1.24746
1203 1 1 13.2598 5.76446 3.16526 2.50444
2017 1 1 14.4498 5.49104 3.03836 2.2114
7273 1 1 14.9504 4.9733 3.78423 1.26115
7998 1 1 16.25 5.12384 3.08379 0.323944
75 1 1 18.3024 4.59133 4.2184 0.543463
6396 1 1 0.473754 6.32341 3.49026 1.46786
1002 1 1 1.88336 6.36476 3.456 0.75668
6848 1 1 3.53962 7.19239 3.35138 1.04346
1883 1 1 3.47116 6.17287 3.71091 0.892911
7879 1 1 5.1708 5.89213 3.00877 1.75947
1717 1 1 4.40918 7.10316 4.33957 0.979292
6767 1 1 5.43489 7.07618 3.55644 1.77564
1864 1 1 6.57131 6.6515 3.87146 1.72505
131 1 1 6.15389 5.83003 4.28054 0.109625
188 1 1 7.38301 7.02642 3.23893 2.07681
1217 1 1 7.41442 6.31229 4.22752 3.34291
7782 1 1 9.85048 6.52334 4.22323 1.82833
564 1 1 10.7052 5.8079 4.2281 0.184865
6538 1 1 11.6709 7.15279 3.40883 0.86161
1927 1 1 12.2896 6.24433 3.57345 3.41801
1051 1 1 14.2255 6.57104 3.45433 1.45824
7611 1 1 13.8245 7.02042 4.27966 0.951844
285 1 1 15.8481 6.94221 3.34542 1.39911
5812 1 1 14.8886 5.85916 4.25689 4.54503
108 1 1 16.5627 6.36949 3.28718 3.0379
602 1 1 16.5056 5.82701 4.2382 0.449007
1338 1 1 17.7739 6.21963 3.66764 0.472036
928 1 1 18.3347 7.10102 3.73346 0.443535
1399 1 1 0.408774 7.90984 3.48321 2.40454
2747 1 1 1.19899 7.30189 3.68543 0.716276
996 1 1 2.43551 8.62144 3.06074 0.639971
357 1 1 3.34454 8.37418 3.55058 0.28779
626 1 1 5.64117 7.98216 3.17195 0.366542
983 1 1 4.69929 8.25034 3.47582 1.20277
568 1 1 6.90356 7.76352 2.95621 3.23996
344 1 1 6.27488 8.65573 3.79588 0.820434
2980 1 1 7.61574 8.27219 3.55331 0.745976
7322 1 1 8.84012 8.14338 3.67465 2.28787
1784 1 1 10.4196 7.60618 3.93862 0.802409
648 1 1 12.7456 8.11355 4.12142 0.305394
738 1 1 12.9519 8.67597 3.0474 1.26724
1802 1 1 11.8856 8.55452 3.31157 1.54466
1513 1 1 14.3704 7.66884 3.53937 0.350749
596 1 1 14.7091 8.63051 3.15999 0.211579
235 1 1 16.9574 7.25105 2.90696 0.815659
240 1 1 17.0612 7.69425 3.83519 4.09683
6875 1 1 18.0895 8.23082 3.77639 2.51355
2798 1 1 0.46008 9.63785 3.35394 2.03201
134 1 1 2.65848 9.08197 3.86859 0.803638
440 1 1 3.78481 9.40223 4.12467 1.85499
1417 1 1 4.57661 9.42699 3.43878 2.57753
1001 1 1 6.01612 9.89244 3.28303 0.241519
604 1 1 7.07859 8.92716 2.90043 0.980593
1211 1 1 7.39175 9.5032 3.62832 0.531038
95 1 1 8.42982 8.82581 2.95677 1.57354
345 1 1 9.59807 8.72267 4.04093 1.6369
1460 1 1 10.4899 9.00537 3.08259 0.687095
7867 1 1 12.7813 9.72309 3.14991 1.74923
241 1 1 12.1581 9.62016 4.33066 1.58346
1250 1 1 13.7566 9.50568 2.96837 0.294401
2587 1 1 13.482 8.9446 3.84713 4.68021
790 1 1 15.699 9.68051 3.13726 2.31496
7470 1 1 14.6771 9.46452 4.24661 1.27548
6561 1 1 17.1661 9.62872 3.70716 1.88523
7432 1 1 18.1786 9.19877 3.02839 1.43063
1113 1 1 18.4174 9.16991 4.06542 2.30209
863 1 1 1.4196 10.1465 4.07647 0.788938
7721 1 1 2.37039 10.1467 3.68903 2.49858
1093 1 1 1.74129 11.027 3.02071 2.60174
7474 1 1 2.63079 11.4215 3.38535 3.46172
399 1 1 3.71822 11.4249 3.46505 4.20008
2882 1 1 3.56433 10.4011 3.57489 0.32903
970 1 1 4.42906 11.3169 4.22766 0.0444441
7862 1 1 5.26226 10.8003 3.42141 0.616279
2265 1 1 6.70356 10.3032 3.95436 0.261698
1727 1 1 8.04589 10.2252 3.07329 2.80011
478 1 1 8.29726 11.0044 4.01884 0.364243
825 1 1 9.65874 11.2819 3.77416 1.10369
1296 1 1 10.0195 10.2233 4.1584 0.652502
7573 1 1 10.7744 10.159 2.944 1.54631
378 1 1 11.4644 11.2456 3.61272 0.601074
1332 1 1 11.103 10.3341 4.00988 0.976656
1438 1 1 12.4038 10.6315 3.72035 0.0863455
7979 1 1 13.6314 10.4704 3.78217 0.296077
1189 1 1 13.0358 11.3848 3.91698 3.61014
1072 1 1 14.6818 10.9467 3.38243 1.93033
1143 1 1 16.416 10.7762 3.34537 1.86433
1728 1 1 18.6793 11.098 3.86397 2.06036
622 1 1 18.0057 10.3657 3.49373 0.73751
1280 1 1 1.00698 11.966 3.38234 2.25171
1895 1 1 2.74916 12.6583 3.20466 1.43305
7863 1 1 2.47327 12.3749 4.32086 0.917827
800 1 1 3.35934 12.2933 3.94333 0.816385
7011 1 1 4.71759 12.3312 2.90061 6.81808
1178 1 1 5.6738 11.7428 3.85787 0.768426
1163 1 1 4.63077 12.2875 3.92798 0.245078
1448 1 1 5.95395 12.4986 3.40881 1.44055
699 1 1 7.17343 11.7179 3.51625 2.65348
163 1 1 7.86034 12.8795 3.32397 1.64075
1226 1 1 8.60833 12.1963 3.61323 3.33916
823 1 1 9.93349 12.1921 3.1096 0.374308
1504 1 1 9.71134 12.6684 4.04164 0.476943
7138 1 1 12.0426 12.0841 3.00458 3.44298
1799 1 1 13.6089 12.4529 3.79514 1.07029
991 1 1 15.3668 11.8655 3.50964 0.755106
303 1 1 14.5275 12.4459 4.27251 0.219016
302 1 1 15.1165 12.9499 3.33318 0.526443
6563 1 1 16.3384 11.6664 4.01345 0.682119
1079 1 1 18.6601 12.1481 3.98976 0.956853
918 1 1 17.9186 12.9943 3.23874 3.22035
7754 1 1 0.818186 14.2616 3.87193 0.675867
642 1 1 0.706923 13.079 3.91606 2.44137
7051 1 1 2.86462 13.7349 2.9905 2.26302
7515 1 1 1.91199 13.7289 3.5106 0.494098
6531 1 1 4.30586 14.4592 4.1689 1.27187
6536 1 1 5.72107 14.3319 3.66686 4.7401
7210 1 1 5.00063 13.5869 3.36376 0.365734
7139 1 1 7.16798 13.2738 4.23478 0.700092
221 1 1 7.69817 14.1793 3.98243 1.83631
1848 1 1 9.76147 14.1684 3.82691 1.87321
284 1 1 11.3707 14.414 3.10271 2.34482