ITEM: TIMESTEP
1900
ITEM: NUMBER OF ATOMS
8000
ITEM: BOX BOUNDS pp pp pp
0.0000000000000000e+00 1.8820720577620570e+01
0.0000000000000000e+00 1.8820720577620570e+01
0.0000000000000000e+00 3.7641441155241139e+01
ITEM: ATOMS id mass type x y z v_temp
129 1 1 2.29079 17.9987 1.03924 1.06073
7265 1 1 2.54809 1.88785 37.2475 0.117028
692 1 1 3.4957 0.161993 0.615865 1.73948
7267 1 1 0.926548 2.89243 36.2082 3.52475
7818 1 1 4.19058 18.2217 1.75314 1.19718
7996 1 1 5.6238 15.2343 37.4947 0.136097
7535 1 1 8.21321 2.31998 2.81627 2.36
1196 1 1 11.1563 17.5552 1.28946 0.274089
1200 1 1 13.5131 15.8612 4.13667 2.33471
726 1 1 10.9579 2.09137 0.614345 2.75331
6814 1 1 17.9942 1.93299 36.4222 1.32683
881 1 1 15.1698 18.3832 2.13984 1.33348
1269 1 1 16.7715 17.5198 1.54982 2.90565
511 1 1 13.3542 1.94076 2.50312 2.07109
576 1 1 17.8776 4.65943 36.6526 3.40953
351 1 1 1.0016 1.81057 1.37116 1.57395
7647 1 1 18.2603 17.4469 35.4357 0.434114
6648 1 1 1.94308 4.17367 3.16029 1.0481
774 1 1 1.31799 3.30799 3.26539 3.00094
7226 1 1 4.37952 1.4175 0.418201 1.082
547 1 1 4.99812 1.15595 3.03997 0.975019
6076 1 1 4.97213 1.8682 1.31701 1.35928
7503 1 1 6.61621 3.18717 1.37283 0.575834
7982 1 1 7.74521 18.2394 4.35749 0.662118
6986 1 1 10.4961 1.4788 1.45349 1.19866
6855 1 1 8.96649 2.7139 36.5717 1.08944
7032 1 1 9.89486 4.03362 0.383572 1.59058
1806 1 1 13.9168 3.0284 0.896239 2.96481
593 1 1 10.9055 1.74786 37.3218 1.87757
1333 1 1 12.3592 2.03777 0.492631 0.334713
7669 1 1 12.9132 0.782643 2.95721 1.39144
1315 1 1 16.9419 3.19633 1.09094 4.23059
914 1 1 15.3231 17.1825 4.4484 2.00405
7301 1 1 14.9656 2.55923 0.123686 0.514027
1473 1 1 14.598 2.24181 2.30673 1.03125
6868 1 1 15.1978 3.7125 37.2376 1.49446
18 1 1 0.923902 1.75958 3.65393 2.0054
7440 1 1 15.4114 0.644295 2.37847 0.864659
47 1 1 18.38 4.83459 3.01344 4.98076
447 1 1 0.166123 7.23763 36.6255 0.330528
508 1 1 2.23526 3.06006 0.789622 0.745482
6006 1 1 0.894842 3.54025 37.1474 0.536105
7660 1 1 3.57089 4.35098 1.88833 1.48348
7718 1 1 4.97374 4.95214 0.4923 0.76087
1309 1 1 6.32075 2.30684 2.15959 2.19787
7332 1 1 7.43323 2.38857 1.8973 3.58961
7653 1 1 8.21794 2.83652 1.95956 0.242945
6477 1 1 8.40874 1.78845 1.41896 0.248781
7666 1 1 10.8451 4.71043 3.39252 1.57836
73 1 1 11.6049 2.45686 37.1161 2.59184
1664 1 1 13.5455 6.39546 0.712002 2.70619
7911 1 1 13.629 3.61931 36.3587 2.31155
271 1 1 13.5204 5.43794 1.1834 0.948955
515 1 1 12.1963 2.31658 1.61886 2.21071
966 1 1 17.1754 2.72443 37.0393 0.517068
7841 1 1 0.48306 2.58659 1.73667 0.777431
366 1 1 1.32964 3.64852 1.55119 1.60522
7937 1 1 18.5849 3.58587 2.70942 0.078633
7507 1 1 0.45704 6.36124 1.10003 1.0695
3 1 1 5.00607 3.90491 1.88467 2.19657
7879 1 1 4.49723 6.26579 2.24601 0.266956
429 1 1 7.75423 6.66857 1.21014 0.878266
1850 1 1 6.13048 3.98032 0.706943 0.665286
529 1 1 5.87112 7.09376 1.91846 4.52844
7644 1 1 10.6628 4.74554 1.51958 1.37715
6942 1 1 6.27993 2.71987 3.38439 1.7975
7625 1 1 12.187 6.47147 2.1958 1.43191
6703 1 1 9.39157 5.31686 1.33931 0.370051
7466 1 1 9.08216 5.50568 37.0249 2.95952
1329 1 1 15.8103 5.15694 0.583347 1.34057
6872 1 1 14.0739 18.6459 1.58626 1.46769
7432 1 1 17.7699 8.59574 2.43236 3.32825
7086 1 1 1.62915 2.02008 36.6008 0.703214
7641 1 1 3.20418 7.89533 4.23501 0.872605
6848 1 1 3.41564 7.12015 2.62037 0.85066
354 1 1 4.84408 7.90988 0.699013 0.810633
1045 1 1 2.73472 4.12505 0.97101 2.11744
945 1 1 7.34699 8.74528 36.8161 0.0816499
7663 1 1 5.9178 4.4638 2.06947 4.4096
193 1 1 9.34228 3.8361 37.146 0.635532
796 1 1 9.06728 4.97497 4.35381 1.12937
543 1 1 14.4123 7.20491 2.50176 4.48366
6657 1 1 12.258 10.1134 36.1045 0.1005
7348 1 1 11.9221 4.38174 2.11256 1.31957
91 1 1 14.1491 7.8821 1.47376 0.487215
276 1 1 15.8324 7.8964 0.060042 2.52023
7972 1 1 13.355 6.7406 1.94287 4.59764
79 1 1 15.8995 9.21145 2.03374 0.64126
7479 1 1 15.4633 6.81479 35.7379 0.367997
72 1 1 1.58145 5.98044 0.474214 1.10509
6762 1 1 1.68866 8.42244 1.57154 2.6419
6705 1 1 2.20263 8.92634 36.0508 3.13948
158 1 1 3.39821 9.35127 35.9464 0.674555
7424 1 1 1.41254 6.81943 35.9432 0.681528
7047 1 1 3.07824 9.36443 37.4223 2.52744
997 1 1 5.91683 6.324 37.4099 4.66266
925 1 1 5.36927 7.99512 1.60618 3.46919
7803 1 1 3.53941 6.12953 2.36042 1.12275
6235 1 1 8.02989 8.90639 36.0386 0.215134
6874 1 1 7.22498 8.7041 0.960491 3.23861
7096 1 1 7.82848 7.06081 -0.00539124 0.690694
1820 1 1 9.0135 5.88623 35.6091 0.595932
214 1 1 7.1093 6.75953 2.05302 1.53235
6619 1 1 12.6649 7.54729 0.602211 1.86477
181 1 1 12.4568 9.21262 37.2392 0.213536
86 1 1 17.2611 9.32962 37.5001 0.659019
762 1 1 16.093 7.17581 36.9919 0.350355
617 1 1 14.7223 8.22297 0.433447 3.26887
108 1 1 16.7813 5.9653 3.71975 1.43012
884 1 1 0.911594 10.1611 34.8235 1.21074
736 1 1 17.3925 10.269 36.592 2.08621
146 1 1 1.80108 11.8609 36.6584 0.531742
5397 1 1 2.03844 9.46147 0.370775 0.412964
442 1 1 1.29352 8.67296 35.6061 3.51865
7721 1 1 2.44205 9.96291 3.15755 0.875905
6126 1 1 5.72405 8.89308 0.439984 1.537
538 1 1 3.14408 8.13835 37.1401 0.646707
178 1 1 2.17527 9.69469 1.94003 1.6252
5813 1 1 8.03833 10.2657 33.8808 2.09751
7326 1 1 6.7508 8.23904 0.23555 1.72795
1046 1 1 6.80273 9.62592 1.73039 5.00176
721 1 1 10.7235 9.95187 0.953208 1.61296
1224 1 1 7.13797 7.92514 2.06079 0.955608
570 1 1 9.0303 3.72695 2.01478 2.7553
6470 1 1 10.9473 8.21572 0.298575 1.07728
6933 1 1 9.14608 10.0572 0.0101716 1.03558
6527 1 1 12.1751 11.7051 37.5484 1.1187
6693 1 1 12.3738 10.185 1.53141 1.64544
349 1 1 14.7714 11.573 35.4392 0.722526
1349 1 1 17.3732 10.3137 1.17151 3.19633
253 1 1 10.5787 6.73409 35.8155 3.48847
1074 1 1 15.216 9.89855 1.24962 5.00263
877 1 1 17.9772 7.44827 36.2627 1.66909
712 1 1 16.7651 11.3474 2.62571 2.71584
7913 1 1 13.7184 10.3121 1.98483 0.729546
1036 1 1 18.7927 8.97817 1.76995 1.2764
889 1 1 18.35 9.93114 37.0729 1.36666
1093 1 1 1.40464 10.3714 2.55059 1.09528
1280 1 1 1.25588 11.6362 2.70347 1.36667
7011 1 1 5.05756 11.8128 1.89004 1.35057
7144 1 1 7.26557 7.90683 35.2889 2.13484
1172 1 1 5.70498 8.02271 36.9959 0.449896
7621 1 1 3.27977 9.63616 1.06091 1.59083
6842 1 1 7.61105 10.3676 1.02433 0.671592
7065 1 1 8.09781 9.27946 0.304387 3.8564
10 1 1 8.48308 11.5763 1.08175 0.677196
7740 1 1 8.42062 8.27813 1.05396 1.95576
6750 1 1 13.7257 13.5371 1.55711 2.94141
574 1 1 12.7822 10.4464 0.737283 0.922005
7635 1 1 13.3455 10.719 36.4109 2.96732
423 1 1 14.8774 11.2502 1.59108 1.46803
501 1 1 13.8058 12.9158 36.6717 0.380173
683 1 1 14.3815 9.83755 0.0247099 0.0819427
669 1 1 16.4267 8.30468 1.84811 0.63784
247 1 1 17.6446 9.57351 1.7823 1.68911
5857 1 1 17.5458 7.40832 0.0396381 2.36253
1528 1 1 0.0216299 11.2941 37.4281 4.30034
1350 1 1 3.333 13.2556 1.06976 1.5303
7060 1 1 3.17026 13.4533 2.31357 5.07432
7174 1 1 3.38603 12.0933 0.204852 1.59013
1681 1 1 5.93597 9.98469 0.747394 3.55896
584 1 1 6.39264 11.7686 2.50626 3.25788
365 1 1 7.90055 13.9822 2.02099 1.65433
955 1 1 6.66361 10.8362 0.1295 0.71142
38 1 1 11.6718 10.9544 0.944365 2.91009
255 1 1 10.9582 13.8396 37.5854 1.62783
6752 1 1 10.7053 11.5724 0.723747 2.05657
6567 1 1 11.7858 12.5868 36.8223 0.199261
286 1 1 11.1784 12.5209 1.21543 2.7347
7545 1 1 13.3684 11.9645 0.328893 2.90317
7634 1 1 13.1345 11.3752 37.1826 0.954887
237 1 1 14.6245 12.718 35.8447 3.52128
7483 1 1 17.7012 10.6608 37.5913 0.116566
6599 1 1 16.3239 9.49329 0.10667 1.182
7089 1 1 18.4097 10.8884 1.65671 2.1473
579 1 1 17.7732 14.1549 0.10696 1.78205
1234 1 1 17.0305 11.981 1.4354 0.622784
7555 1 1 18.7376 13.7986 36.7207 1.38756
6788 1 1 4.8462 11.6375 35.8258 0.625185
8000 1 1 4.45435 13.3224 0.269557 1.08519
6232 1 1 5.76963 13.4167 1.08052 1.35085
1995 1 1 6.67057 16.0976 0.182503 2.35556
215 1 1 3.52308 16.458 3.28813 0.42883
815 1 1 6.47839 12.4555 1.47592 1.27893
1908 1 1 10.6674 13.5849 36.3734 0.647162
5866 1 1 9.96156 14.1661 1.12652 4.1152
53 1 1 9.09338 13.8289 2.54874 1.03184
6686 1 1 12.5598 12.7214 37.5324 1.82475
7888 1 1 14.7151 12.7725 37.0004 0.45433
7390 1 1 16.7479 15.1028 37.0908 0.086602
234 1 1 18.0183 12.4805 1.67742 0.689722
375 1 1 17.1904 13.4953 2.28541 0.758182
7826 1 1 18.0632 14.4423 2.75749 0.327482
634 1 1 17.4433 11.3205 0.718087 2.15921
7947 1 1 0.875386 13.584 0.727681 1.66836
7968 1 1 18.5075 16.3559 36.8443 2.4306
1529 1 1 1.04801 14.6505 0.818588 0.331673
559 1 1 18.38 16.385 3.10789 0.816854
704 1 1 5.46316 11.1762 1.11979 2.21861
7854 1 1 6.24174 12.3352 37.6257 0.772703
769 1 1 5.97568 13.4013 2.26999 0.751157
6379 1 1 7.40366 12.3201 0.722156 0.298712
7926 1 1 2.22366 15.6332 0.409305 0.0585716
504 1 1 5.07446 16.0277 1.77159 1.23264
6600 1 1 5.2889 14.8228 1.7427 2.72549
1150 1 1 8.92593 15.852 36.4738 0.0981848
7457 1 1 11.0225 14.8526 37.5314 0.629661
377 1 1 7.54749 16.3603 3.3377 0.842891
746 1 1 0.349832 17.3187 36.2951 1.9343
1042 1 1 16.8793 16.0099 1.03611 0.422717
629 1 1 15.9566 15.7235 0.906863 0.233927
558 1 1 3.32483 14.44 1.06723 0.30818
7869 1 1 18.0737 16.0149 35.9168 1.59918
7951 1 1 17.9013 15.1215 1.25826 0.532501
7604 1 1 3.39373 1.62139 0.1361 5.43266
1485 1 1 4.71347 17.8631 36.2762 1.12702
1481 1 1 3.68187 15.7805 1.0797 2.0447
775 1 1 5.74329 0.658151 0.642374 3.96903
7569 1 1 5.0361 16.8262 37.6367 0.186264
7206 1 1 10.0474 17.3734 35.589 1.51258
6914 1 1 7.91123 17.7502 1.26006 5.41812
227 1 1 11.4687 16.1092 3.3795 3.01129
708 1 1 12.7859 16.1435 36.7681 2.40428
7550 1 1 11.4955 17.614 37.2728 0.656211
7341 1 1 13.1307 16.9155 0.886802 2.71636
1110 1 1 14.9476 16.2601 1.45023 0.960931
22 1 1 15.1873 17.4208 35.7217 6.32747
356 1 1 13.892 16.6573 1.48528 1.34432
7202 1 1 15.8142 17.0519 1.20976 0.615241
7999 1 1 15.5107 14.4322 3.14489 0.676537
6845 1 1 18.1148 1.29172 37.4388 0.916763
6777 1 1 2.81519 0.451998 37.3185 0.764178
194 1 1 0.666133 0.860981 0.793687 0.626283
6713 1 1 2.92484 18.2597 0.0617739 1.97217
6835 1 1 5.96694 18.4133 0.709853 2.37473
1573 1 1 4.47621 18.5577 2.70327 0.410625
228 1 1 6.34367 14.3051 36.03 1.12598
3576 1 1 8.03447 18.7629 0.293758 0.780378
1206 1 1 9.92215 17.7606 1.0176 0.763696
1139 1 1 10.5698 0.227546 0.834982 1.23591
2020 1 1 12.2988 16.2508 35.6997 0.238364
1339 1 1 12.2332 1.22659 2.15275 2.92114
338 1 1 10.4441 16.8267 2.31645 0.378807
6636 1 1 16.1892 16.1242 37.3134 1.48398
7478 1 1 0.248032 1.20038 35.9489 0.42364
7261 1 1 18.8248 18.1803 0.178134 0.907059
2367 1 1 18.2235 17.1898 0.0834266 0.3125
33 1 1 17.9808 0.809857 34.4318 5.54141
1999 1 1 17.6781 18.6169 1.6278 0.897401
1198 1 1 1.99157 0.347828 0.48878 0.397932
643 1 1 1.84629 1.19471 3.31719 2.28481
2347 1 1 6.28547 0.165196 4.01558 0.0716145
6152 1 1 4.51681 3.14371 0.24947 1.44002
175 1 1 8.49905 0.79794 2.0565 1.20584
895 1 1 7.09696 0.519236 2.14601 2.59704
633 1 1 5.8626 1.73046 3.30986 4.81842
1446 1 1 7.33008 0.799273 1.25175 0.865663
1416 1 1 9.28879 0.228384 0.916857 1.15193
94 1 1 9.3865 2.41775 2.18922 0.126367
1749 1 1 11.9158 17.1707 2.58906 1.56302
824 1 1 10.4593 2.3025 3.39263 0.485242
6079 1 1 10.2626 18.4359 1.89645 0.933406
7745 1 1 12.7768 0.840745 0.359022 0.247791
383 1 1 17.0763 1.56452 0.287951 1.02059
677 1 1 15.8945 1.9415 37.2708 0.702894
608 1 1 1.04862 18.3237 3.23101 1.51411
31 1 1 1.05555 2.97929 0.631608 1.09223
1348 1 1 5.57386 4.00009 37.4349 0.571092
427 1 1 18.7396 3.27695 6.09789 0.594947
155 1 1 4.03183 2.29374 1.00215 0.572991
7903 1 1 1.45483 2.20213 4.33291 2.55185
109 1 1 4.01529 1.23873 3.49546 0.106915
406 1 1 2.60995 3.34497 1.9485 1.52952
936 1 1 4.13528 3.92202 1.04715 2.10529
2126 1 1 7.26663 1.41678 4.0997 0.0604367
7539 1 1 10.9183 2.83055 4.2077 0.741504
1993 1 1 11.2417 1.70761 2.83412 0.995276
418 1 1 8.48111 2.301 0.349221 2.2913
1213 1 1 12.6318 2.8731 3.21224 0.13232
100 1 1 9.98452 2.72877 37.3243 2.8237
1308 1 1 15.1099 17.2369 2.06847 3.2402
1007 1 1 15.5333 17.5204 3.0073 3.9351
1344 1 1 17.0717 17.8755 3.41131 1.65374
206 1 1 18.713 2.14841 3.58429 0.8238
7088 1 1 17.4409 2.07288 1.34246 3.23272
7980 1 1 14.8987 0.9358 4.51748 0.76741
7646 1 1 18.2931 3.54725 4.1952 1.22144
6995 1 1 18.4863 6.36274 2.54713 0.797515
875 1 1 3.82978 3.88221 0.12353 0.594339
1409 1 1 0.86003 5.42306 0.756341 2.32976
879 1 1 0.358925 3.00064 4.23978 0.649691
1237 1 1 5.17946 2.74486 2.49514 0.164801
7251 1 1 2.78774 3.38131 4.00866 2.02576
580 1 1 6.78966 2.9288 0.27517 2.06053
125 1 1 4.5914 4.25246 3.68215 2.57225
623 1 1 10.2471 5.63328 2.70311 3.62319
656 1 1 4.08126 2.52978 2.53032 2.39847
385 1 1 6.98684 2.85992 5.14221 0.996682
6659 1 1 10.0311 2.25022 1.09662 0.701673
934 1 1 8.4949 1.10318 0.382601 4.309
3337 1 1 10.3111 3.95779 2.69882 2.74464
7588 1 1 11.7456 3.29438 0.572996 0.374634
505 1 1 14.6191 1.28266 1.96079 2.61846
7719 1 1 14.2056 6.07996 2.30661 3.08665
1377 1 1 14.2667 2.13211 1.32148 0.51009
1422 1 1 16.6967 3.30189 3.40477 0.0739657
1183 1 1 15.2784 2.52356 1.24227 0.80288
651 1 1 16.3502 3.1419 2.48434 0.729229
7998 1 1 16.1779 5.35014 3.22502 2.01572
314 1 1 0.605867 5.0628 2.45641 1.67887
802 1 1 18.802 5.5618 1.48373 0.494078
1287 1 1 1.07234 6.01261 2.06026 1.99708
190 1 1 3.36995 5.91307 1.15211 0.406389
2824 1 1 3.7603 3.23697 1.73234 1.10128
1714 1 1 5.14856 4.9894 3.08922 1.29815
7631 1 1 2.39872 5.06146 2.70934 1.45858
1717 1 1 3.66789 6.97249 4.22177 0.295248
1977 1 1 1.70382 6.08579 4.28763 2.35266
661 1 1 7.16545 4.81044 2.26331 0.686135
6922 1 1 8.4695 4.84656 0.65957 0.40662
1076 1 1 8.51825 6.60354 1.97935 1.44513
6136 1 1 8.51319 4.28267 3.26896 0.537734
492 1 1 11.9336 7.68715 3.8598 0.773569
1051 1 1 13.5917 7.12827 2.97566 1.51565
582 1 1 6.5881 5.94338 1.78249 1.07684
2221 1 1 14.8227 3.61758 0.961594 0.266288
7185 1 1 15.9036 5.62866 2.2094 0.621112
6241 1 1 15.1324 3.97335 2.40777 0.329035
444 1 1 18.1254 4.36622 0.675141 0.172157
6975 1 1 18.589 8.08571 2.9365 1.46872
1562 1 1 0.99096 7.57873 2.09097 2.31098
230 1 1 0.348361 10.1134 2.27812 0.762964
7659 1 1 0.968787 4.73448 1.54847 2.42901
7738 1 1 5.03243 7.36364 2.33672 0.585357
7651 1 1 1.27289 6.26713 5.2852 3.71687
7215 1 1 5.75702 5.83233 0.764416 3.87424
1405 1 1 7.48893 5.47913 5.93599 3.73936
2348 1 1 10.9849 2.39521 2.02964 0.174919
1194 1 1 9.14073 8.10211 1.9413 1.04501
140 1 1 12.5765 6.5329 1.26702 0.393004
469 1 1 15.378 4.6504 3.28684 3.64413
1193 1 1 13.6056 8.33124 0.64517 0.550782
1274 1 1 14.8528 10.5672 5.38744 2.89134
2197 1 1 17.064 6.81238 37.0937 2.21037
223 1 1 16.9181 4.34909 37.5336 3.79889
7358 1 1 16.844 5.12028 1.98596 1.12965
6675 1 1 18.2502 7.33144 2.16206 3.50119
1596 1 1 3.14168 6.82007 1.67483 2.16947
1917 1 1 1.95529 7.30167 4.10457 0.913862
926 1 1 0.831358 8.99807 2.89333 2.74266
7791 1 1 2.79822 8.00708 5.9713 1.16095
7966 1 1 2.9629 10.4425 2.33234 1.26311
5817 1 1 2.54303 6.34764 2.52705 0.398806
1002 1 1 1.99849 6.46646 3.33414 1.26198
626 1 1 5.64605 7.81 3.03028 0.830079
615 1 1 7.58714 7.73735 0.760955 0.451211
7643 1 1 7.48379 5.78299 2.70027 1.53415
1427 1 1 5.0501 6.69644 1.33919 1.35599
568 1 1 6.68095 7.70176 3.26347 0.327521
7748 1 1 8.20762 5.44974 1.67835 1.7792
6538 1 1 12.0335 7.61831 2.5876 1.40457
188 1 1 8.15671 6.45428 3.18794 1.03797
1069 1 1 11.4866 10.4037 1.81203 0.987315
285 1 1 14.8605 7.61572 3.46482 3.07524
7021 1 1 15.2133 9.25935 0.430818 0.606132
7983 1 1 13.9252 9.29486 0.974147 2.77877
550 1 1 11.3807 6.1633 0.459573 1.76529
7717 1 1 17.8965 5.08529 1.58548 5.02974
1318 1 1 0.702206 10.4927 36.6911 1.22758
6875 1 1 17.2572 8.47345 3.89319 0.460614
7280 1 1 0.122206 4.24594 3.66647 0.879772
107 1 1 16.2835 8.53326 2.89457 0.937135
2110 1 1 1.9928 7.17289 5.5016 1.73901
481 1 1 6.1033 10.7623 1.76601 2.55292
750 1 1 0.876158 12.2273 37.3875 0.506994
7482 1 1 4.51583 6.86566 4.94366 3.45496
1301 1 1 1.61642 9.17071 4.6777 2.34934
6987 1 1 3.08988 8.44637 1.66693 1.9416
1547 1 1 6.0229 8.68677 1.98347 0.842211
7335 1 1 7.65002 10.0955 2.69456 1.71443
1001 1 1 6.21584 9.35676 2.7332 0.59886
2177 1 1 8.87387 3.47603 2.98005 1.17719
7002 1 1 8.7183 10.0975 1.01911 2.56787
7943 1 1 9.47961 8.87997 0.410174 1.64972
2244 1 1 11.2864 8.57801 2.36856 1.47789
6497 1 1 9.76395 9.84396 1.39787 0.493192
6463 1 1 12.1324 8.94708 0.931916 2.13155
6669 1 1 13.1276 7.9794 37.4392 1.32093
973 1 1 11.086 8.87668 0.99711 0.685926
7851 1 1 18.1648 9.81984 2.81916 2.13347
790 1 1 15.1668 9.72507 2.43772 2.37768
6569 1 1 0.127899 10.4855 0.261068 0.717993
967 1 1 5.45754 9.68232 37.1688 0.257452
863 1 1 1.43409 10.4115 4.51831 3.68946
1790 1 1 6.95825 11.2288 1.05427 1.1562
1417 1 1 5.17323 9.55408 3.32728 1.42295
1542 1 1 7.57453 11.5013 1.84532 1.5535
232 1 1 12.7228 10.3811 37.2498 2.86085
1107 1 1 9.46033 7.18288 2.36374 0.919127
7984 1 1 9.92743 13.2236 1.70068 2.43367
7156 1 1 10.5598 9.92691 2.318 2.78893
653 1 1 15.1626 14.7568 1.24769 3.19815
296 1 1 15.4937 10.0647 36.7815 2.92935
6590 1 1 14.2849 12.5857 0.353056 1.83384
6939 1 1 12.045 11.9514 1.44673 0.965874
84 1 1 16.8497 9.81459 5.09888 3.57941
386 1 1 11.6343 10.6404 2.97245 0.146829
7470 1 1 14.7299 9.10291 4.59338 2.02756
818 1 1 14.6461 10.7151 2.42044 0.436657
7800 1 1 16.4811 10.0895 2.50171 1.68385
7845 1 1 2.03489 10.8848 5.42879 1.21143
1360 1 1 0.820583 9.88361 1.26725 2.27329
259 1 1 0.0375913 11.5803 2.32502 1.48054
7811 1 1 1.34576 11.4787 1.63241 1.22534
340 1 1 4.21181 10.8597 1.3541 1.60497
6646 1 1 3.64028 12.4499 2.21822 0.634743
7805 1 1 3.50991 13.0421 37.4078 6.82658
773 1 1 2.45543 12.2669 1.31734 1.71142
834 1 1 4.81292 10.3452 0.45697 1.51414
7248 1 1 6.49326 14.0091 1.48324 0.735573
290 1 1 5.55185 12.3404 6.26934 0.627219
7704 1 1 8.50118 12.8879 1.63241 0.194415
1165 1 1 7.18019 12.4679 2.16672 1.87993
6946 1 1 8.65124 15.0104 3.12662 1.82215
4198 1 1 10.1521 10.8519 1.37431 2.00888
2814 1 1 11.4902 11.9072 2.34191 0.556602
7444 1 1 15.5603 13.3824 1.85418 0.0934803
7867 1 1 12.3639 9.86429 2.80389 0.78096
1971 1 1 18.468 13.6867 2.12338 1.92932
7855 1 1 1.54688 12.7599 1.25006 0.266743
7772 1 1 1.72306 11.5806 0.694264 1.93632
245 1 1 0.43719 12.8728 2.71979 2.62733
6650 1 1 2.67626 14.3919 2.6695 1.24431
7056 1 1 4.37032 11.888 1.06444 0.932378
7610 1 1 7.7079 10.9801 4.66397 3.02249
452 1 1 7.0963 12.8357 37.3629 0.757093
1144 1 1 9.49627 12.6954 1.01699 1.15598
1448 1 1 6.02086 13.0732 3.33944 2.15207
1210 1 1 7.87139 15.4366 1.52781 0.970436
1178 1 1 5.724 11.986 3.33892 0.130873
6632 1 1 7.58329 12.7647 5.36516 0.0792913
1848 1 1 9.6116 13.6816 3.35814 3.07288
1103 1 1 11.4056 12.4471 0.114607 0.922418
6824 1 1 12.2522 14.4863 2.89508 2.46547
1187 1 1 14.3662 13.5616 4.1507 0.520059
1143 1 1 15.998 11.1088 3.43817 5.43548
7853 1 1 16.9483 13.7837 0.460757 1.66093
393 1 1 15.4372 13.8948 0.480566 1.48913
7887 1 1 0.548814 14.2134 4.03031 2.05735
1604 1 1 17.9349 15.5613 5.52441 2.72594
757 1 1 2.82384 16.7143 0.282731 1.14488
1509 1 1 1.22191 17.5383 2.05996 3.4909
7957 1 1 2.24405 13.4051 0.843778 1.36642
6243 1 1 4.08488 13.9263 36.3094 0.213009
445 1 1 4.13175 11.5371 2.11149 0.287381
399 1 1 4.44188 12.0755 2.99168 2.31561
1527 1 1 4.45565 15.2204 1.96316 0.753114
6851 1 1 9.29794 16.7189 1.74369 2.0948
902 1 1 7.79308 15.2277 2.49462 1.52112
829 1 1 8.33575 12.3997 0.463134 1.77073
7040 1 1 11.1876 15.7335 2.12588 1.95916
2661 1 1 10.6702 14.7866 6.12154 2.54735
3108 1 1 9.96519 14.9438 3.8805 0.430295
6723 1 1 12.0603 13.2608 1.67951 0.202275
389 1 1 14.0313 15.6772 0.984967 1.73814
2345 1 1 14.706 14.8075 0.239879 0.0338968
7548 1 1 15.0926 11.5154 0.378989 2.56657
2287 1 1 14.7575 17.5027 0.769366 2.28128
1439 1 1 13.5765 17.7194 4.16792 2.10255
1638 1 1 17.6587 16.9646 2.35818 1.18096
785 1 1 3.97881 16.2581 1.9063 0.0614643
328 1 1 0.582595 17.2315 1.28425 4.68613
844 1 1 4.72388 15.9755 0.551596 3.81198
332 1 1 0.925903 16.7733 2.64214 0.903622
6459 1 1 4.54204 14.1616 2.92357 1.86555
7613 1 1 4.49018 0.308468 0.790429 1.29038
728 1 1 5.95251 14.5072 4.73613 0.759737
7856 1 1 9.25017 16.7392 4.32813 0.123496
1432 1 1 6.80469 13.2745 0.674596 2.30303
1582 1 1 7.68119 16.7173 1.34266 1.59493
854 1 1 12.874 14.3346 4.00037 4.13954
416 1 1 11.8578 14.5942 1.69729 1.74419
343 1 1 10.6021 16.8096 37.3052 1.96213
7149 1 1 12.1268 17.2944 1.40313 1.44027
1904 1 1 13.5601 14.1134 2.64412 1.91902
1406 1 1 16.5057 15.1903 1.75006 0.624534
40 1 1 14.6623 16.9549 3.18832 0.793963
2409 1 1 18.6524 14.4497 1.41702 1.10119
5999 1 1 17.5532 16.8769 0.911525 0.690068
1634 1 1 2.97974 16.1326 2.51497 1.14252
318 1 1 3.41878 1.07379 36.4794 2.64605
686 1 1 2.0371 15.449 1.57636 2.89835
1729 1 1 4.50777 16.7416 1.06168 1.31958
6866 1 1 6.53791 17.909 1.78554 1.51321
1328 1 1 7.99057 0.0933313 1.42956 3.65202
7785 1 1 5.83255 2.2627 0.848546 0.732075
605 1 1 6.1305 17.4628 37.6459 1.93341
1785 1 1 8.55507 17.0916 2.80989 0.425652
7230 1 1 10.8581 16.6028 4.85145 1.37619
6673 1 1 9.82701 0.33542 4.43288 1.58196
696 1 1 11.9486 18.2086 1.949 1.24487
841 1 1 10.6385 16.9085 3.3022 2.36314
2270 1 1 14.2493 0.793088 2.86106 1.22783
273 1 1 13.7316 17.233 0.13572 2.1843
859 1 1 18.1041 17.6873 1.80482 0.601895
180 1 1 16.3144 16.6778 3.55545 3.72556
1186 1 1 15.5646 0.247507 1.21308 0.740732
7930 1 1 18.3699 0.894717 0.972139 0.411214
7188 1 1 0.955912 3.94019 4.2091 4.71413
1926 1 1 0.307764 16.1333 5.2636 3.71532
7938 1 1 1.48718 2.63974 2.21745 1.06342
7934 1 1 4.67272 16.9792 2.34963 1.06271
489 1 1 2.76112 2.38363 2.36423 1.69977
3146 1 1 3.6656 1.66088 2.45982 1.6673
1930 1 1 5.28373 17.7915 4.01761 1.63415
1140 1 1 5.94865 0.286025 2.19363 0.347251
7122 1 1 3.88511 18.7727 4.10374 1.97555
1331 1 1 5.68288 16.8451 4.13519 2.20413
6321 1 1 5.37364 1.9506 4.29674 1.22316
1168 1 1 8.27275 0.38306 3.66892 2.9704
497 1 1 7.6029 1.17173 3.06313 0.869766
566 1 1 7.15093 18.3783 1.10285 1.59191
1658 1 1 9.33203 18.1592 5.82227 1.62807
700 1 1 10.0967 1.78403 2.53481 5.8588
1708 1 1 9.83601 0.638231 1.84398 0.754526
906 1 1 11.5752 1.92752 3.94473 0.407992
2106 1 1 13.0529 1.44509 1.59185 0.864606
871 1 1 14.0439 18.7115 5.07447 2.06417
990 1 1 12.7681 15.9033 3.48606 0.0802157
787 1 1 2.7184 17.3037 3.99896 1.23161
982 1 1 17.5657 3.92922 3.43653 0.619557
7950 1 1 11.1014 18.0814 2.47763 0.787287
1223 1 1 15.2459 1.80993 3.04875 1.51084
894 1 1 14.7243 0.242361 3.76081 0.892219
1265 1 1 15.4529 1.46155 1.43893 3.07601
915 1 1 3.81005 2.89558 3.71815 0.660057
1279 1 1 3.59457 0.294842 3.28994 1.80288
611 1 1 2.91138 18.0385 2.79616 0.49694
1543 1 1 4.72879 2.22906 3.29361 0.535835
1208 1 1 7.72237 2.41111 4.41171 0.565384
886 1 1 8.8398 1.37379 5.98419 2.36383
96 1 1 9.03866 1.08187 2.88207 0.357216
2103 1 1 8.08851 1.89976 5.46352 2.25268
553 1 1 12.2542 5.58094 1.56717 3.81337
640 1 1 13.0119 18.5335 1.95121 1.06097
409 1 1 13.4238 2.1388 3.66166 2.97357
387 1 1 14.3491 2.1164 3.94951 0.488428
1229 1 1 16.9749 1.13132 5.23354 1.99002
7246 1 1 14.5137 17.8609 4.04838 4.92318
7914 1 1 16.5735 4.31273 2.72568 1.21155
816 1 1 18.728 5.7991 4.72858 3.52575
1338 1 1 18.0192 5.74476 3.57489 1.9929
1805 1 1 2.06523 2.305 6.61005 0.581849
7284 1 1 1.94068 5.2081 1.79216 1.83545
509 1 1 2.41603 4.23813 2.15911 0.562092
1281 1 1 2.44519 2.87541 5.70546 1.02154
7123 1 1 3.17386 3.89521 3.03931 1.69094
56 1 1 7.30853 3.86578 2.07203 0.0420472
585 1 1 9.04409 3.86291 4.72023 3.60814
528 1 1 8.53741 4.53423 5.40103 1.22287
2318 1 1 7.72785 4.74155 4.22255 0.535117
7989 1 1 7.17032 2.24658 3.38267 1.59075
177 1 1 10.3763 1.00947 5.33473 0.65639
7685 1 1 6.68544 4.33576 3.39188 0.0262941
1661 1 1 10.9572 3.70201 1.32606 1.20215
1826 1 1 12.9808 4.34282 2.52626 0.583541
7725 1 1 16.5757 4.01404 5.60836 0.928365
7155 1 1 13.8874 3.98951 1.3381 4.38859
1203 1 1 13.4792 5.46189 3.40665 0.656447
1239 1 1 14.4275 3.13732 2.02047 0.505569
7468 1 1 15.9404 3.39105 1.53751 1.63722
148 1 1 18.066 2.30253 4.33552 0.971878
1591 1 1 16.9858 2.18662 2.71078 0.592331
3932 1 1 15.9249 1.76592 6.3599 1.89307
6396 1 1 0.285539 6.15347 3.37556 0.873724
15 1 1 1.44431 5.14682 3.15637 1.02949
62 1 1 6.14145 3.81361 5.31471 2.62282
7532 1 1 6.9171 5.26642 4.51456 1.72419
691 1 1 8.43854 7.19297 5.17767 1.25125
1648 1 1 10.3456 2.91144 2.49263 1.58298
122 1 1 11.3394 2.87482 3.09162 1.42813
2455 1 1 11.5799 4.51231 4.26314 0.997238
1698 1 1 13.222 5.80997 4.51016 0.183936
7422 1 1 13.6578 2.86217 5.06234 1.44106
6541 1 1 16.0863 6.19923 4.53955 2.77866
2075 1 1 12.6716 2.90415 4.2731 0.322746
2392 1 1 15.5091 6.48621 5.40319 0.738837
581 1 1 14.3657 4.87712 4.76227 0.283707
486 1 1 14.8425 6.79178 1.56528 3.60428
102 1 1 15.1735 8.55458 2.13422 2.87096
235 1 1 17.5826 7.14782 3.02061 0.245101
6533 1 1 3.08451 6.51125 6.9988 0.89015
7456 1 1 4.39315 8.24152 6.1178 0.397276
523 1 1 17.6973 3.96979 5.70765 0.519676
548 1 1 2.26263 5.19199 3.70862 0.252626
1883 1 1 3.97682 5.8936 4.12667 0.698414
6767 1 1 5.41517 6.22211 3.00466 1.1389
7921 1 1 5.6984 3.92755 3.26393 2.73917
1177 1 1 5.26846 7.94293 4.99678 1.38102
7904 1 1 5.50506 5.64549 1.97019 2.85719
455 1 1 9.78859 4.05434 4.05491 1.19667
980 1 1 11.9824 3.2482 2.35533 2.94569
1833 1 1 14.1468 4.61134 2.44713 0.296431
2017 1 1 14.5727 5.37897 3.24855 0.276883
591 1 1 15.6438 7.62567 1.14325 1.19721
1715 1 1 17.2773 6.67091 4.40664 1.08816
928 1 1 18.6377 7.1418 3.2951 1.04846
1637 1 1 17.7618 7.56406 4.69404 1.9764
1399 1 1 0.172916 8.0984 4.10048 1.21254
7795 1 1 18.2682 7.78722 5.8304 0.586708
134 1 1 3.15499 9.07297 4.24576 1.52979
1864 1 1 6.16182 6.28432 3.81006 1.73248
1334 1 1 8.77043 7.99692 6.13362 0.253188
7459 1 1 8.68597 11.4669 2.69587 0.552225
7322 1 1 8.27512 6.71014 4.25077 2.29965
1927 1 1 12.8868 6.29994 3.48773 0.496738
5690 1 1 13.8837 8.44427 2.63218 0.429655
277 1 1 13.0231 7.9683 1.49731 0.592125
648 1 1 12.8779 7.61282 3.62332 1.0911
985 1 1 10.3325 8.13718 1.98682 0.80845
610 1 1 11.6244 9.3497 1.82169 1.99361
488 1 1 14.3553 8.20936 6.15593 0.311028
5812 1 1 15.3873 6.00636 3.7871 1.13848
1537 1 1 16.5609 6.70623 2.51804 1.62382
960 1 1 16.8792 7.07318 6.52373 1.82593
913 1 1 15.5812 7.6237 2.4201 0.733861
114 1 1 2.57898 9.58724 5.79206 1.05018
2239 1 1 4.53836 9.96485 4.82382 2.89964
959 1 1 2.05526 11.1346 3.71765 5.55238
996 1 1 2.23896 8.62508 2.54766 0.819034
1863 1 1 4.67366 8.36936 2.85791 1.81316
667 1 1 1.30727 9.50409 6.56932 0.889873
1415 1 1 6.37121 7.52099 1.01185 0.766177
344 1 1 6.24434 8.87856 3.73528 0.830697
1475 1 1 8.07924 12.3254 2.62428 1.85631
1217 1 1 7.15064 6.79184 4.26041 0.443498
2874 1 1 7.50816 7.77093 4.46573 0.691475
1781 1 1 8.7889 9.09662 1.66641 0.283147
7573 1 1 10.7944 9.92767 3.47222 0.72047
183 1 1 11.198 6.095 2.88904 1.01726
7138 1 1 12.0498 12.3465 3.36001 1.56089
1906 1 1 14.4949 9.36317 1.82073 0.0620096
2320 1 1 14.3211 12.1497 1.25876 1.17439
738 1 1 12.8767 9.01253 3.5893 0.511411
240 1 1 15.8444 8.02481 3.75833 1.91316
1942 1 1 16.1426 11.3811 7.29823 0.440962
6561 1 1 17.2802 10.2332 3.36951 1.56039
1113 1 1 18.6587 9.14662 4.69124 1.02583
1870 1 1 17.1237 8.94331 5.97992 4.35146
336 1 1 17.5275 10.5009 2.23815 2.1828
1793 1 1 0.00901509 10.1947 4.69076 0.218344
1272 1 1 3.60291 11.2626 5.08433 1.18289
1728 1 1 0.815911 11.6461 3.97732 1.80598
369 1 1 4.1916 9.66818 1.34803 0.829155
243 1 1 3.63885 12.298 4.82703 1.49705
2311 1 1 4.6428 9.47094 2.33842 1.44089
2980 1 1 7.33611 8.8597 4.33253 3.3929
970 1 1 4.53712 10.9421 4.27523 0.481654
1211 1 1 7.05793 9.38675 3.38316 1.40508
7538 1 1 9.6325 11.1012 3.0529 1.83315
7798 1 1 9.2696 11.0125 4.6284 1.28375
378 1 1 10.942 11.8548 3.29436 5.85646
221 1 1 8.15298 14.0114 3.32085 3.22296
6896 1 1 8.90478 10.5387 5.90628 1.49283
1487 1 1 11.4162 9.42004 2.77711 0.174587
1100 1 1 11.9345 13.4641 4.2746 0.938596
1965 1 1 16.8354 11.4421 5.92651 0.0228391
1072 1 1 14.6912 10.7467 3.73019 0.72829
6913 1 1 16.977 11.0111 4.59773 0.78478
186 1 1 13.8632 11.4701 7.30168 0.447513
1130 1 1 18.6852 10.5675 6.08979 0.992643
2798 1 1 0.476491 9.92926 3.50705 0.805012
2151 1 1 15.7406 10.3967 4.4764 1.33618
6719 1 1 18.7015 6.83651 4.24824 0.355903
6563 1 1 16.796 12.2855 3.56601 0.667677
2313 1 1 0.0344492 13.7506 4.97398 3.24351
300 1 1 0.493728 11.0186 3.02026 1.38143
203 1 1 2.98623 10.8915 3.94157 1.09251
2357 1 1 4.63373 11.8748 37.1115 1.23465
7474 1 1 3.47784 11.1954 2.99864 2.69261
163 1 1 6.88246 11.876 3.34744 1.68999
765 1 1 4.30979 10.5138 3.38582 3.89153
1163 1 1 5.05205 12.8449 3.58803 0.879819
1912 1 1 8.62825 12.5319 5.77694 1.58665
201 1 1 11.7184 11.7521 4.20879 0.644937
627 1 1 14.4447 12.2895 2.22561 2.88812
7004 1 1 12.4916 12.3141 2.36606 0.281609
1438 1 1 12.5876 10.7893 4.04922 0.530909
1175 1 1 12.7095 13.5898 5.57686 2.06826
678 1 1 13.1866 11.7635 1.4688 1.18487
1250 1 1 14.1046 9.8679 2.96635 3.63501
1590 1 1 17.7167 13.3335 4.23771 0.898874
622 1 1 18.349 10.4347 3.72198 0.656668
1184 1 1 15.7569 12.9848 4.35806 2.8246
1079 1 1 18.4904 11.8074 3.21724 0.854007
435 1 1 17.4373 14.2839 4.66562 1.95114
7670 1 1 17.0309 12.9054 0.764499 2.29286
962 1 1 0.570256 13.3237 1.61848 1.78527
878 1 1 0.561808 15.1262 4.7889 2.1502
6531 1 1 3.92849 14.5675 3.80727 2.09251
7847 1 1 0.71894 15.0418 2.67276 0.657881
7212 1 1 0.401129 13.3219 6.14984 0.523218
1895 1 1 2.66088 11.9611 3.15446 1.0881
1561 1 1 3.36657 15.2989 1.96146 1.97717
7085 1 1 9.52284 11.8745 5.44731 0.73107
795 1 1 7.79256 13.7023 5.80456 2.05883
292 1 1 7.21399 11.5238 6.95589 0.971634
6536 1 1 6.81245 14.2621 3.49249 2.14433
381 1 1 10.2866 15.8779 3.27213 0.870117
342 1 1 9.98717 14.1325 5.00212 2.571
2224 1 1 11.3917 13.8167 2.58337 3.63518
1676 1 1 15.7683 12.6735 0.836795 2.05359
1986 1 1 17.8488 16.4226 4.12384 1.02497
7993 1 1 15.9704 11.9325 37.3749 0.728595
1024 1 1 16.5978 14.1565 2.91971 2.83243
1514 1 1 16.2369 13.025 2.83588 3.32147
7480 1 1 0.00294297 12.8926 7.42414 0.903997
1116 1 1 3.05683 0.0568332 1.50153 1.59282
7863 1 1 2.5341 12.6569 4.23827 2.48496
1146 1 1 0.903242 15.8859 36.618 0.756551
1486 1 1 4.64307 16.3191 4.02276 0.168694
487 1 1 5.93415 14.3277 2.74443 1.62375
1337 1 1 4.52577 15.9797 2.95245 1.83776
1128 1 1 6.64203 15.3468 4.36933 0.623137
961 1 1 10.0713 15.6363 1.99343 0.134711
7489 1 1 6.88218 14.9202 1.47724 0.316378
1505 1 1 7.90194 14.8534 3.7581 1.17788
1147 1 1 11.3455 15.2827 4.21094 0.447245