ITEM: TIMESTEP
3200
ITEM: NUMBER OF ATOMS
8000
ITEM: BOX BOUNDS pp pp pp
0.0000000000000000e+00 1.8820720577620570e+01
0.0000000000000000e+00 1.8820720577620570e+01
0.0000000000000000e+00 3.7641441155241139e+01
ITEM: ATOMS id mass type x y z v_temp
7951 1 1 0.941215 0.253804 1.52625 0.929157
328 1 1 0.693135 0.383101 0.217091 0.578935
1739 1 1 2.53538 0.555091 36.3935 2.09409
1573 1 1 1.82115 18.4554 0.18091 2.55968
1198 1 1 3.37946 0.910193 1.61893 4.69252
7166 1 1 6.5767 1.17186 0.0676825 0.375264
7300 1 1 5.59426 18.4674 0.573504 0.417042
1328 1 1 7.04903 1.29276 1.96357 1.90178
1446 1 1 8.22931 0.643457 0.708104 0.46745
1140 1 1 9.14801 1.57986 0.773171 1.14531
56 1 1 7.02842 1.61512 0.85281 1.50931
6855 1 1 8.98079 0.020048 0.0812005 0.929473
7149 1 1 10.7061 1.16135 37.479 1.08696
887 1 1 10.2632 0.269748 0.442178 1.25764
7745 1 1 11.6001 0.924027 35.8258 1.54038
801 1 1 12.5654 0.00811013 37.2825 1.0361
1479 1 1 14.5065 0.239109 1.22745 1.70801
7301 1 1 15.0738 1.43039 0.392752 0.28343
1511 1 1 15.8247 0.903286 1.08198 2.00633
6839 1 1 17.3601 18.7578 36.6802 0.13359
1672 1 1 17.9201 0.652627 1.92265 0.664484
7088 1 1 18.5528 18.6763 37.5248 0.900289
1380 1 1 18.2212 1.37739 0.274365 1.93514
7930 1 1 1.39097 2.31591 0.0548875 2.73172
508 1 1 0.179562 3.20729 0.244262 1.77335
2026 1 1 2.41438 0.890849 1.86188 0.595313
1279 1 1 4.65492 2.27819 0.474128 2.7276
6494 1 1 4.40888 2.61579 37.1012 2.73355
7604 1 1 5.59862 2.2544 1.01772 0.493623
1266 1 1 5.97914 1.52493 1.61035 0.192516
324 1 1 5.41803 3.27121 0.0389554 2.9098
7751 1 1 6.27401 3.16029 0.74146 1.58915
7564 1 1 8.41016 3.3093 0.362849 1.33061
7653 1 1 8.53481 2.17917 37.1393 1.31472
6866 1 1 7.24861 2.65228 1.92939 1.12481
775 1 1 9.87679 1.84829 0.0413871 0.126593
7283 1 1 8.81275 3.92165 37.0395 1.88322
3337 1 1 11.1505 1.16458 1.73042 2.94191
446 1 1 11.6765 2.84769 1.34942 1.06902
350 1 1 12.9987 1.91458 0.578568 1.42846
6850 1 1 13.0953 2.8153 36.9496 2.82577
1183 1 1 14.4047 2.0413 1.15443 1.50136
1020 1 1 14.0161 2.71458 0.0917576 1.78982
6845 1 1 17.1474 2.08718 1.30806 3.7003
7202 1 1 18.1717 1.56465 1.27299 1.10925
1045 1 1 0.5124 4.06485 0.901996 1.63464
1713 1 1 2.04086 3.32229 0.767951 0.109577
6006 1 1 3.25664 1.69876 0.689991 1.21954
7697 1 1 2.86214 4.0423 0.624709 1.62238
406 1 1 3.44579 2.77063 1.15286 1.48775
7612 1 1 5.67481 4.0181 0.852431 0.220209
1333 1 1 9.22926 2.5816 0.559722 1.28267
7625 1 1 8.29441 4.43293 0.482097 2.06713
437 1 1 11.0068 2.37339 0.559669 0.808625
7032 1 1 11.9168 3.95498 0.622711 1.10273
7392 1 1 15.5033 3.65778 37.6298 1.92358
5355 1 1 17.4841 4.20994 2.28643 2.44678
853 1 1 15.226 4.88808 1.09508 0.81157
7595 1 1 16.7775 4.13338 1.43167 0.57948
1037 1 1 18.4423 2.57335 1.24079 0.710318
6423 1 1 17.5145 3.00138 1.0994 0.641913
6875 1 1 0.0183747 5.30492 0.112727 1.61597
6987 1 1 2.49599 6.16657 0.457875 1.45478
366 1 1 1.15518 4.77614 36.9743 1.1709
7718 1 1 3.15014 5.09843 0.668407 0.35718
6083 1 1 3.95824 3.65045 0.751007 0.780213
1310 1 1 3.85063 4.95525 1.48678 2.74309
1723 1 1 4.52662 4.69986 0.811112 1.32357
135 1 1 5.42865 5.54033 36.9886 2.24763
5799 1 1 7.00143 6.32397 1.32949 5.98985
217 1 1 6.82601 4.7831 1.21168 2.18967
2244 1 1 9.31498 4.51597 0.63121 0.45392
6581 1 1 7.93109 4.02025 2.31972 2.2382
7450 1 1 12.1564 4.82637 36.9727 0.937427
7155 1 1 12.5538 3.49001 2.08497 2.48723
6551 1 1 11.0086 3.53547 0.293712 0.623999
7544 1 1 13.9166 4.92994 0.459368 0.194815
1377 1 1 14.6693 5.70044 0.714878 1.15872
223 1 1 17.333 5.95836 0.766448 0.280643
7273 1 1 15.703 5.93125 1.3059 2.06691
877 1 1 0.329467 4.22439 36.8308 1.16551
645 1 1 17.8918 4.99165 0.476429 3.05054
1427 1 1 1.64332 6.43374 0.0452628 2.30118
1562 1 1 1.6988 6.84392 1.22293 3.47424
573 1 1 0.939794 7.1855 36.9413 0.586005
7956 1 1 3.47197 6.53789 1.37089 0.0997834
6152 1 1 3.5572 5.93449 0.162995 2.51934
1224 1 1 7.22589 7.19682 0.756605 0.603381
1381 1 1 8.45928 7.64713 1.40158 0.381287
354 1 1 8.72184 5.82462 37.2771 0.584894
6996 1 1 8.08761 6.30913 1.26861 1.47773
7408 1 1 10.6427 6.03062 0.104265 2.06022
7466 1 1 9.28816 6.2552 1.44692 3.10411
973 1 1 12.0463 5.87946 1.2955 0.447425
6949 1 1 10.8652 6.96537 0.293172 0.546775
1664 1 1 12.4817 7.89898 1.0041 1.01747
6997 1 1 12.5191 6.75138 0.293039 1.25117
6470 1 1 11.6922 5.62181 0.0319155 1.64428
675 1 1 12.7023 6.88041 1.69114 1.16934
6044 1 1 13.6722 5.79567 1.48561 1.17347
140 1 1 14.1121 6.85005 1.49095 0.565274
276 1 1 15.1641 6.89767 0.011909 0.902398
1537 1 1 15.0232 6.73425 1.12065 1.07893
371 1 1 16.3459 5.65769 0.37634 1.73837
7659 1 1 16.3308 6.32278 2.2279 1.46106
3092 1 1 16.499 6.5726 0.689674 0.889032
1757 1 1 0.05797 6.45031 1.23008 1.2698
7397 1 1 18.3013 6.07468 0.463726 0.284789
1360 1 1 0.422635 8.04294 0.406975 0.611939
7942 1 1 1.80132 7.68173 37.6019 1.7177
86 1 1 1.82684 8.40522 0.671206 0.810975
6578 1 1 2.82333 9.30388 1.9497 0.691314
6767 1 1 3.38421 7.83958 37.5526 0.342618
1415 1 1 5.26511 7.74473 1.15006 0.276687
6874 1 1 7.72355 8.06419 0.607619 0.762476
6933 1 1 9.03427 8.78962 1.41362 0.644701
7573 1 1 10.0557 7.94707 0.488592 2.17666
5690 1 1 11.5725 8.03229 1.69223 0.594121
610 1 1 11.7215 7.47035 0.47743 0.19263
5857 1 1 18.4125 9.24679 1.15979 0.358345
1399 1 1 0.605369 9.25699 1.23959 1.42962
5649 1 1 0.990488 8.0919 1.171 4.88193
7026 1 1 2.28576 10.362 1.5231 4.69414
158 1 1 3.74897 9.77395 1.87244 1.43507
930 1 1 5.01067 10.0273 0.572741 0.585387
7065 1 1 5.60152 10.7004 1.01348 0.435186
7731 1 1 6.4961 10.0235 0.398241 0.904012
429 1 1 7.4855 8.77029 37.0102 0.633682
7002 1 1 7.75748 9.27355 0.813049 1.68119
154 1 1 6.95505 9.7057 1.51523 0.339299
1296 1 1 9.78174 9.02938 0.724998 0.616891
7943 1 1 12.6055 10.8375 37.6144 3.81514
232 1 1 15.0541 9.89291 37.0257 3.96999
1193 1 1 13.8369 7.97198 36.7359 1.73229
7021 1 1 16.0539 9.94098 1.89523 0.509259
1120 1 1 15.0073 10.0488 0.780045 1.08783
7548 1 1 16.1971 8.76006 0.914867 0.49819
7800 1 1 16.7007 9.43626 0.116978 0.65913
3472 1 1 17.5385 8.48909 1.37425 0.724067
219 1 1 17.9264 9.97595 37.6089 0.362082
7967 1 1 2.32349 10.4081 2.67525 4.22037
1349 1 1 0.801678 10.3089 1.08226 3.66426
7729 1 1 1.59365 11.1592 1.6004 1.72789
7047 1 1 2.06786 11.2504 0.240489 1.29594
48 1 1 4.45671 10.076 4.0591 2.91334
228 1 1 3.56689 10.8475 0.318788 0.920582
1547 1 1 5.24851 11.1403 2.03194 3.93824
1790 1 1 7.97194 10.4976 0.890984 3.29319
238 1 1 8.00261 11.8732 0.35887 5.47109
678 1 1 9.09223 10.401 36.6252 0.569471
1385 1 1 9.58777 11.5386 0.642257 2.69793
64 1 1 8.06872 11.9994 36.996 0.192918
229 1 1 9.86529 11.5935 36.4612 0.518972
969 1 1 15.4233 11.2081 1.64803 0.271897
1997 1 1 13.3364 12.0079 0.759177 0.933859
7512 1 1 14.5592 10.8789 0.979029 0.378077
627 1 1 15.5216 11.088 0.549191 1.07882
736 1 1 16.623 10.1553 36.7081 1.06417
7805 1 1 17.3415 11.0442 0.752482 1.17166
549 1 1 2.19006 13.4977 2.23916 7.98005
1971 1 1 2.48313 12.5192 0.956384 2.19121
7621 1 1 3.15404 12.7895 1.75329 0.864757
452 1 1 3.48465 12.1094 0.684232 1.96782
1046 1 1 6.75031 13.3047 0.985994 2.83061
23 1 1 5.08399 12.5843 0.132588 1.23908
6253 1 1 7.04201 12.0465 1.24816 0.0882634
6723 1 1 11.0017 12.7278 0.568925 3.21043
423 1 1 14.1113 13.0759 0.421246 0.347846
296 1 1 17.0166 12.1034 1.14363 2.21867
7282 1 1 15.0505 14.1356 0.353951 1.37787
962 1 1 18.6231 12.0349 0.709503 0.274225
6183 1 1 0.971026 14.0089 37.6362 3.01006
6411 1 1 18.1594 12.5985 37.5565 0.766756
7060 1 1 2.95185 13.6796 36.5614 1.895
6898 1 1 4.45366 13.5666 1.18695 0.359708
6379 1 1 4.69555 14.4418 0.642619 1.06384
7035 1 1 6.60294 13.7802 0.0643985 2.67675
7457 1 1 7.4132 12.7238 37.2473 1.21048
378 1 1 10.0538 13.9471 1.56866 3.581
5866 1 1 8.8601 14.2558 0.261138 1.61771
7620 1 1 13.1075 13.0653 0.939616 0.914671
708 1 1 11.833 11.6047 1.25903 1.52444
7955 1 1 13.6482 12.8177 1.81929 1.14433
1567 1 1 17.2698 13.8567 37.3671 1.19954
7338 1 1 18.2017 13.6523 0.724846 1.4329
336 1 1 16.5239 15.1262 0.217454 1.02955
7261 1 1 0.261168 14.8291 0.905825 0.471228
918 1 1 0.780601 15.6615 0.508297 1.54639
7845 1 1 3.02048 15.0666 0.619206 6.17532
7405 1 1 4.51917 15.3422 1.02925 0.196182
1995 1 1 6.70269 14.7849 0.481514 1.74106
1561 1 1 5.15951 15.1125 0.176471 0.855707
37 1 1 6.86576 14.764 1.63243 2.39422
6399 1 1 8.65717 14.8648 1.23288 0.475006
961 1 1 7.48246 15.5872 0.934271 1.64363
7950 1 1 9.71694 14.9757 1.3121 1.43161
1144 1 1 10.093 16.0575 37.2017 1.73012
511 1 1 10.7969 15.4936 0.731389 2.07987
6032 1 1 12.7749 15.5845 36.8226 6.25064
7163 1 1 12.9641 15.7894 0.676281 0.937808
820 1 1 12.6822 14.8238 0.303042 1.35991
629 1 1 15.1742 15.2976 0.272744 1.63601
1529 1 1 14.264 15.5415 1.86743 2.58574
375 1 1 17.0322 13.1884 0.811306 1.52368
7757 1 1 15.7034 16.1014 37.6138 0.335806
7672 1 1 18.2 15.6146 36.8562 1.60268
1170 1 1 17.9682 14.8895 1.44745 0.536661
757 1 1 0.270953 16.0429 37.2892 0.639041
2476 1 1 1.4827 16.5928 0.976011 1.20743
1984 1 1 0.413936 17.0819 0.617029 0.583598
1136 1 1 3.17902 16.369 0.992547 1.5339
7248 1 1 4.25162 16.3211 1.24789 0.323445
7530 1 1 5.24131 17.0663 1.11889 1.24581
569 1 1 5.49753 16.1206 0.898695 0.0289358
7899 1 1 7.33714 16.7047 0.750941 0.752429
7736 1 1 8.84526 16.0517 0.959939 1.62835
6673 1 1 8.94639 16.9813 0.504496 1.38358
1103 1 1 12.0071 15.932 1.00316 1.32926
7680 1 1 12.9136 16.7251 0.137438 0.587832
2106 1 1 11.8068 14.8954 1.00868 2.21439
472 1 1 13.6706 17.7857 1.18787 4.77032
2109 1 1 16.5028 17.1976 1.55303 4.76986
579 1 1 17.0005 16.0404 37.5228 0.717913
1042 1 1 18.1415 16.1589 0.299002 1.13444
2662 1 1 0.315885 17.4559 36.9043 2.41328
668 1 1 0.543847 17.9945 1.33498 1.44162
1469 1 1 2.64193 17.6197 0.278609 0.923308
7773 1 1 4.60307 0.347345 1.11799 4.10568
175 1 1 6.49838 17.8604 1.16479 2.58916
895 1 1 8.79781 17.998 0.58489 0.973605
1993 1 1 9.75718 17.5531 1.26937 0.993814
7753 1 1 9.45969 17.7792 37.459 1.09601
7568 1 1 12.9854 18.2332 0.520303 0.65794
1308 1 1 13.9495 17.8857 36.6014 0.91937
788 1 1 14.7146 17.7474 0.235618 2.37686
7529 1 1 16.1976 18.3842 0.521271 0.703739
1315 1 1 17.2699 18.1883 37.5896 1.70783
7434 1 1 17.2124 18.4866 1.89809 1.73096
910 1 1 0.44593 0.334402 2.71786 1.32297
206 1 1 1.20813 0.92159 2.32543 0.22353
608 1 1 3.47786 0.798633 2.77152 0.56415
692 1 1 4.10831 1.33933 3.834 0.17434
7818 1 1 8.16539 0.500574 2.25251 4.70451
6079 1 1 7.09429 0.39894 0.929835 0.621322
55 1 1 9.45559 0.148114 1.12696 2.12136
2103 1 1 7.9955 1.89411 1.43721 0.722871
343 1 1 9.0052 18.1397 1.68332 1.37661
515 1 1 12.0108 0.300193 0.651495 1.09625
94 1 1 10.6217 17.9843 1.74516 0.777173
6659 1 1 10.0519 0.921872 1.12639 2.12302
2348 1 1 12.4037 0.597121 2.2263 0.188266
409 1 1 13.3465 1.37654 1.9229 3.29013
7340 1 1 11.7834 18.0173 1.71679 0.701608
281 1 1 12.9793 0.0983528 1.27284 1.55263
822 1 1 13.5293 0.803445 2.81842 1.65418
430 1 1 14.9206 1.71152 2.39354 0.808344
1928 1 1 16.2266 1.19128 2.27053 0.414131
807 1 1 17.9972 1.45775 2.78587 2.76885
351 1 1 18.2902 18.4267 1.71543 2.07681
1607 1 1 17.8063 0.0117632 2.74517 2.4038
149 1 1 0.79115 2.63586 1.40461 1.95311
965 1 1 0.0556859 1.21916 2.27524 2.2079
2044 1 1 3.41865 2.13318 2.0084 2.28532
1654 1 1 1.81306 2.48306 3.31492 0.126783
104 1 1 2.86558 2.91654 2.75057 0.228686
915 1 1 5.45308 2.15188 2.22699 0.420912
6040 1 1 7.15284 1.68613 2.85342 0.472793
454 1 1 8.95057 2.37975 1.55733 2.90999
726 1 1 10.0995 2.59853 1.0521 1.30187
1270 1 1 12.3077 1.81015 2.40405 1.16621
6241 1 1 13.6814 3.25202 1.1982 1.77099
828 1 1 12.9209 2.50223 1.87432 1.36327
7440 1 1 15.8064 1.88203 1.06961 3.64668
7028 1 1 14.0279 2.53992 1.92897 0.944497
552 1 1 15.6651 2.57834 2.53937 3.446
1591 1 1 18.5287 2.4004 2.31661 1.92139
914 1 1 18.5965 2.17979 3.54451 0.19037
7633 1 1 16.7056 2.8336 2.15355 1.43659
383 1 1 0.896963 3.56732 3.2488 1.08188
643 1 1 1.37371 4.03972 2.24959 0.870953
115 1 1 0.35978 4.41379 3.10392 0.521366
7660 1 1 2.04304 4.34088 1.12017 0.432622
489 1 1 3.73452 3.61591 2.46672 0.893777
1322 1 1 4.34266 2.50596 1.67524 0.64495
7879 1 1 4.82795 5.05519 1.95009 3.21256
1237 1 1 4.86849 3.34394 1.12485 1.35376
1850 1 1 6.17236 4.10185 2.15734 1.47024
188 1 1 5.81602 5.0476 2.64386 2.31897
7861 1 1 7.00423 4.62706 2.50864 1.88503
6922 1 1 8.08019 3.14138 1.61175 0.759715
580 1 1 7.12213 3.75625 1.68359 0.2272
183 1 1 8.76521 3.34632 2.86669 1.43253
593 1 1 9.27186 4.18591 2.14544 2.37927
7468 1 1 11.4505 3.39704 2.3532 1.16091
2139 1 1 13.6882 4.22445 2.0439 0.65861
1213 1 1 16.405 3.6697 2.72903 2.43413
1203 1 1 16.0069 5.23822 2.62864 1.57002
982 1 1 18.44 3.65394 1.42598 0.393805
1409 1 1 0.801772 4.86017 2.21858 0.632383
7938 1 1 2.41144 4.61804 0.0264892 3.14741
1338 1 1 1.74217 6.27633 2.93478 3.73649
936 1 1 3.19172 4.28084 1.87434 0.674941
6605 1 1 4.8984 6.18408 1.31592 0.416596
2318 1 1 6.77394 5.12577 3.87266 0.552678
6216 1 1 5.00355 5.78702 2.95922 1.48512
125 1 1 7.79149 4.94748 1.80869 0.102665
61 1 1 10.0343 4.70688 3.88605 1.99522
6566 1 1 7.87433 6.23143 2.36467 0.591449
164 1 1 11.4188 4.52142 1.44198 3.60692
7348 1 1 10.8499 5.46491 4.26801 0.967414
285 1 1 12.2544 4.31153 2.73466 0.0372891
5812 1 1 12.6946 5.44936 2.59871 1.60427
651 1 1 17.904 5.82263 2.22641 0.599836
7358 1 1 17.7712 4.77245 1.43847 1.09458
602 1 1 16.9568 5.54949 1.78284 0.0680731
1715 1 1 18.0044 4.92413 3.12865 1.85547
137 1 1 18.7045 5.44103 1.13074 1.76817
314 1 1 18.6362 4.69554 1.86522 0.600185
72 1 1 0.880361 6.60009 2.07061 0.549902
802 1 1 0.820142 5.86035 3.65796 0.559981
6561 1 1 0.839378 5.85732 1.34677 0.985359
305 1 1 1.10946 7.08054 3.53133 1.33221
7944 1 1 2.20698 7.43489 3.20081 1.52926
7803 1 1 1.79846 5.31813 1.29135 0.362023
1864 1 1 3.03385 6.63955 3.22383 0.169515
6971 1 1 6.31866 6.13945 2.68228 2.77647
190 1 1 4.22757 7.3594 0.873661 3.71363
7387 1 1 7.129 6.89077 2.55834 1.64146
1781 1 1 8.30937 4.94509 3.55803 0.569371
7094 1 1 9.35593 6.11626 2.66379 2.59796
564 1 1 10.0512 5.47575 1.06766 0.983037
1450 1 1 10.1232 6.97314 1.27534 2.77911
7719 1 1 10.4678 5.79522 1.91328 0.600702
550 1 1 12.9852 7.63843 2.62717 0.94546
108 1 1 12.3991 4.84196 1.39035 0.845736
271 1 1 14.8981 6.24737 2.0718 2.70961
486 1 1 14.5428 6.30681 3.4674 0.371978
956 1 1 15.5468 6.23269 2.92733 1.18867
235 1 1 16.9118 5.76869 3.53908 1.04542
6719 1 1 0.126092 5.77353 2.13174 1.22978
6196 1 1 0.877113 8.06398 2.48295 0.740944
1596 1 1 1.6915 9.23255 1.73267 0.125389
7308 1 1 2.76581 8.23815 2.18787 1.04543
7854 1 1 3.92573 8.42082 3.15799 0.713959
1917 1 1 3.65139 8.54023 1.55784 1.54504
7326 1 1 5.36659 8.11899 2.26863 0.653233
1681 1 1 5.01705 8.96762 1.22897 0.15901
7721 1 1 6.39518 8.26757 2.17574 2.26762
7482 1 1 6.50519 7.59366 1.4152 0.983254
568 1 1 8.67361 8.37025 2.21094 1.64434
1273 1 1 7.72407 8.60258 1.6361 3.33504
7643 1 1 8.68681 9.14113 3.06128 1.83287
277 1 1 9.42605 7.18337 2.67061 0.88459
825 1 1 10.9945 7.88408 2.99759 0.901917
543 1 1 14.6268 9.14435 2.19418 5.26266
7945 1 1 13.8859 9.73941 0.294073 1.29848
790 1 1 15.189 7.13293 2.53586 0.429734
6159 1 1 17.6836 6.99583 2.57324 2.90929
913 1 1 16.2493 7.32263 2.25128 0.572433
669 1 1 15.7377 7.33046 1.11705 0.109371
79 1 1 16.1742 9.02359 2.05364 2.99372
926 1 1 0.133216 8.22901 1.72273 2.29272
205 1 1 0.112504 7.24752 1.92682 3.83558
7717 1 1 0.569871 9.92857 3.39641 1.48878
773 1 1 2.42595 11.3251 3.12468 1.18094
2504 1 1 2.04294 9.37638 3.26804 0.822984
8000 1 1 4.29028 9.48891 2.87932 0.247322
1863 1 1 5.90562 9.38795 1.68677 0.304892
357 1 1 4.76956 10.2164 1.50967 1.9932
529 1 1 6.46789 9.23161 2.72694 0.738296
615 1 1 7.81763 9.90213 2.57997 0.830559
7335 1 1 8.36098 9.85847 1.72721 0.406246
1001 1 1 9.58044 9.82235 2.11476 0.50662
2814 1 1 10.0106 9.75765 37.5298 3.49588
7004 1 1 11.4826 9.07223 1.82357 2.43045
738 1 1 11.7394 9.21997 3.02556 1.91037
1906 1 1 12.7379 10.1399 2.14319 0.624241
374 1 1 12.0143 10.351 3.12572 1.89696
7913 1 1 14.9019 8.95329 0.826347 1.65009
596 1 1 15.2381 10.1676 2.48547 0.739062
7432 1 1 16.5463 9.99309 2.86422 0.835937
7488 1 1 16.8024 9.6091 1.15847 2.51831
6675 1 1 18.0224 8.37077 2.23652 0.754452
7966 1 1 0.211826 8.87447 2.67419 0.216739
634 1 1 0.0888778 11.5074 1.60377 0.859484
7056 1 1 3.49747 10.6685 3.32504 4.48708
6232 1 1 3.31676 11.1598 1.67326 6.13047
146 1 1 3.10779 11.443 3.92596 0.235875
6584 1 1 6.37341 10.1391 2.28834 1.32789
1226 1 1 7.23186 11.0085 2.60844 0.291991
823 1 1 8.83314 9.63645 0.657371 0.968947
955 1 1 10.4126 8.18222 1.61345 2.50425
699 1 1 8.01201 11.7575 1.93098 0.218531
342 1 1 10.4147 12.1401 1.16763 0.439707
574 1 1 10.3537 10.7646 0.277187 0.255217
386 1 1 11.5968 11.7517 2.33374 1.52068
818 1 1 14.2153 10.8717 2.19097 1.04121
2453 1 1 13.2212 11.6705 3.22425 0.603382
2353 1 1 16.5764 11.5929 1.96579 0.320444
600 1 1 16.6994 10.7005 1.51921 1.08482
7888 1 1 16.0331 10.1589 0.71775 0.665414
1079 1 1 17.7549 11.4684 1.91875 0.0872264
750 1 1 0.473108 10.8622 2.41965 0.363796
7128 1 1 18.3586 10.3467 1.04498 0.921966
7851 1 1 18.3735 11.596 3.20049 2.85165
1528 1 1 1.93462 12.1087 2.55596 0.9121
1006 1 1 3.96258 11.9656 1.84693 1.9507
704 1 1 5.52742 12.9291 2.35944 1.12329
7755 1 1 5.05486 13.8664 2.08104 1.77603
563 1 1 5.93791 11.8565 2.15092 2.23096
163 1 1 7.02313 12.2721 2.26993 1.59103
7704 1 1 8.69089 12.9258 2.04322 1.23192
416 1 1 10.0461 11.7097 2.59999 1.76922
7266 1 1 11.2748 13.2604 1.61331 0.809123
976 1 1 12.5939 12.3799 2.49921 0.61041
1189 1 1 14.3891 12.1962 1.7339 0.305372
7138 1 1 15.3959 12.622 1.4277 0.419024
7999 1 1 14.8382 13.2585 2.44385 2.09856
1143 1 1 15.4877 12.5128 2.98078 0.80364
303 1 1 16.9311 12.6001 3.53731 2.09615
991 1 1 17.9072 12.4538 1.8903 2.01471
7772 1 1 0.0900063 13.0471 2.03627 1.15523
559 1 1 1.09029 13.2881 2.46451 0.423132
4804 1 1 2.97826 13.31 2.86107 0.886478
6464 1 1 2.69449 14.5064 1.67954 0.178939
1448 1 1 3.79659 13.8419 2.07141 3.3051
7217 1 1 4.17325 14.4982 2.94807 1.19042
7489 1 1 5.39301 13.0702 0.908637 0.365206
1210 1 1 6.82846 13.964 2.26896 0.729332
7961 1 1 7.15042 13.9535 3.55147 0.766318
769 1 1 7.62055 13.7939 37.4099 3.16846
1432 1 1 10.7192 13.6756 2.92003 0.591303
2347 1 1 8.24526 13.155 0.895957 1.9802
7705 1 1 12.4375 14.1346 3.14923 1.88388
6872 1 1 12.814 13.997 1.61994 1.82472
209 1 1 14.3643 14.4559 2.35594 1.33703
1406 1 1 16.7871 14.124 2.9238 4.77633
1077 1 1 15.3257 13.9237 1.89523 1.07298
255 1 1 16.7856 13.1195 2.13449 1.17749
1910 1 1 0.79318 14.0338 1.17991 2.08227
1999 1 1 18.7517 15.7826 1.35392 1.57504
7404 1 1 3.99793 15.2811 1.93698 0.31401
1729 1 1 6.13013 16.7773 1.03512 3.28492
687 1 1 5.87488 14.325 1.88767 0.77196
239 1 1 6.49385 15.2303 2.53628 2.74594
89 1 1 9.18011 15.9673 2.13796 0.36297
640 1 1 10.7686 14.4085 2.06343 1.99492
2373 1 1 11.8433 14.6177 2.29215 0.157554
1439 1 1 12.4668 15.3492 2.45108 0.534305
7052 1 1 14.464 15.734 0.678585 1.02422
7444 1 1 14.7065 14.5883 3.81132 4.12492
7545 1 1 13.9437 15.1301 37.4921 1.93362
234 1 1 1.45853 14.2471 2.02808 0.690179
6824 1 1 18.3999 15.4385 2.4093 1.41613
1590 1 1 17.4633 14.9229 0.563383 2.95967
954 1 1 0.645766 17.2608 2.00014 1.95042
1282 1 1 2.2952 15.8908 2.66657 0.957076
785 1 1 3.01682 15.5297 1.69422 1.88646
1634 1 1 2.27796 16.9798 2.51564 1.3464
1245 1 1 4.13626 17.2395 2.0022 0.491605
7957 1 1 5.13936 16.3162 1.87443 1.46863
7303 1 1 6.02522 17.4211 3.0151 0.178866
1337 1 1 6.34498 16.3357 2.26346 0.687477
381 1 1 9.60769 16.5472 3.07207 1.77713
1453 1 1 10.3144 16.9797 2.00682 0.877677
2224 1 1 11.1037 17.2712 1.07518 1.62081
841 1 1 9.74515 16.4647 1.20539 2.40692
6582 1 1 11.2158 16.2143 1.6064 1.91059
809 1 1 12.2541 17.1868 1.35717 1.38204
948 1 1 12.2299 16.3144 1.97541 0.0962447
1186 1 1 13.5704 16.4651 1.61419 4.08431
1986 1 1 14.8474 15.5992 2.9071 2.3761
7497 1 1 15.5562 14.1432 3.04155 0.828532
500 1 1 14.8238 16.6047 1.76288 2.71427
7977 1 1 17.6002 17.3367 0.467773 1.79272
7116 1 1 18.3936 16.6251 2.15275 0.831341
7947 1 1 18.7421 17.8371 2.50582 0.869744
1509 1 1 2.94917 18.5823 1.2008 2.21147
332 1 1 3.35809 18.51 2.4635 4.01668
215 1 1 3.73866 18.3225 3.3135 1.58552
7613 1 1 6.20774 0.596751 1.90793 1.87442
504 1 1 4.96194 18.1623 1.39682 1.61021
96 1 1 5.00672 18.3784 3.1272 1.25297
763 1 1 7.59492 18.0526 1.42836 1.92577
1675 1 1 5.70859 0.308942 2.83764 0.534243
1416 1 1 6.21275 17.9298 2.257 0.79472
1196 1 1 8.82642 17.0611 2.13729 1.58155
898 1 1 9.72339 17.9335 2.57668 3.87473
7452 1 1 11.5162 17.0252 2.13239 1.07532
1339 1 1 11.2782 18.0804 2.60502 0.979682
980 1 1 10.5668 18.0154 0.418017 0.748701
1588 1 1 11.6749 17.1521 3.17746 0.924833
1589 1 1 12.4332 17.7845 2.68784 0.151177
505 1 1 13.0113 17.8959 2.00852 0.285882
7246 1 1 12.8518 16.9555 2.29703 0.995212
653 1 1 13.8844 18.1391 2.51559 0.249068
1269 1 1 15.6226 17.5913 2.85393 0.701346
1129 1 1 15.3658 16.8057 0.932893 1.46882
7744 1 1 15.955 18.7297 1.49014 0.158914
1367 1 1 17.522 17.4848 1.48978 1.58019
109 1 1 0.888693 2.02234 3.33354 0.958927
845 1 1 1.98942 1.25487 3.7607 0.288137
2089 1 1 4.79125 0.391673 4.3426 1.02545
547 1 1 4.57929 0.803974 3.02492 0.325523
7197 1 1 5.21948 1.41658 4.6797 0.140093
6777 1 1 5.06034 1.00758 1.87658 3.55551
7982 1 1 7.75852 1.14521 3.73666 0.267203
171 1 1 6.46933 1.45296 4.36813 0.594831
1734 1 1 8.93012 1.46731 2.26901 2.39691
1466 1 1 9.39269 0.493165 2.04098 2.10521
2204 1 1 9.38739 0.215663 3.84069 0.89606
7821 1 1 10.5058 0.226645 2.95245 1.59586
7539 1 1 11.2974 0.159346 1.31658 3.30005
2867 1 1 13.1058 1.52597 3.74599 0.499998
7422 1 1 11.9736 0.274435 4.04006 0.600095
867 1 1 13.1442 0.28128 4.33245 1.2111
1007 1 1 14.842 0.450931 3.20618 0.143064
772 1 1 16.1095 1.3466 3.99593 5.02875
126 1 1 16.4282 0.00183921 2.59993 4.19884
194 1 1 0.498885 0.885521 3.72005 0.752732
3242 1 1 17.7515 0.643707 5.32245 1.27329
7937 1 1 1.65926 2.21381 4.35062 4.73104
633 1 1 4.00027 2.6268 5.04243 1.03474
1738 1 1 2.91194 1.92074 3.30906 0.506147
2030 1 1 2.84538 1.55626 4.28303 3.07196
1365 1 1 3.7265 2.43799 3.03324 0.99488
1309 1 1 5.6785 1.18315 3.4828 2.27994
1488 1 1 7.13669 2.32876 3.59257 0.922029
1543 1 1 8.04151 2.4727 2.56766 0.586709
1661 1 1 9.57944 1.34985 3.15546 3.22603
7535 1 1 8.52895 1.97905 3.33384 1.18931
189 1 1 8.62189 1.48083 4.35879 1.25596
2177 1 1 9.61747 3.00173 2.26776 1.37733
544 1 1 11.117 1.93848 4.54915 1.07197
1044 1 1 9.91063 1.49104 1.98853 5.31155
742 1 1 13.4722 2.58708 3.83431 0.789308
3071 1 1 14.3336 3.36005 3.51787 0.300059
7830 1 1 15.8812 3.14329 3.59437 1.26206
1354 1 1 15.4751 2.26159 3.49182 1.9701
7758 1 1 16.074 4.08193 4.23929 5.29559
7423 1 1 17.0531 1.24439 3.21505 0.657112
874 1 1 18.6563 3.12951 3.41165 2.01355
509 1 1 1.47935 4.89055 3.25017 0.277587
966 1 1 18.2151 4.66823 4.1261 3.37607
2033 1 1 2.4607 4.49954 3.62258 3.10542
2917 1 1 2.29526 4.68613 2.26926 1.10183
2559 1 1 2.17152 3.72654 3.13968 1.65857
7785 1 1 5.08772 2.02516 3.47761 2.92121
1348 1 1 6.24446 2.74153 3.08595 1.8178
7215 1 1 4.2751 4.56873 2.74109 0.550046
656 1 1 5.2074 3.80445 3.9387 0.141505
7924 1 1 6.19858 3.3311 3.90905 0.767686
661 1 1 7.10332 3.56496 2.90692 2.29273
1098 1 1 7.00027 3.17636 4.52298 0.232409
6477 1 1 7.93714 3.07696 3.62403 4.49781
1302 1 1 7.92699 3.98659 4.93563 2.40875
418 1 1 9.20299 4.19861 3.48121 1.46284
6060 1 1 11.9578 3.7699 3.76935 0.287062
6136 1 1 10.9511 4.14518 4.4393 1.82383
387 1 1 13.1768 4.58396 3.12372 1.3965
7185 1 1 13.8771 4.30181 3.93363 0.737059
636 1 1 13.1397 3.0345 2.97267 0.816057
1539 1 1 14.2536 3.34542 2.56828 3.94633
1422 1 1 15.0965 3.89781 3.69204 1.54713
1041 1 1 17.0818 1.79308 2.38363 1.05042
2202 1 1 18.3145 3.54087 2.40884 2.25161
7284 1 1 18.5386 5.82581 4.01392 7.47209
1374 1 1 1.21795 4.91253 4.23058 0.573074
7841 1 1 2.52982 5.72332 3.38054 1.10907
6026 1 1 3.11861 4.50245 2.80573 0.600141
3 1 1 3.56941 5.82144 2.60871 2.73764
82 1 1 7.49406 4.04093 3.79377 2.45296
985 1 1 5.26774 4.92557 3.63125 2.8067
7123 1 1 5.79308 4.06795 3.21078 1.28714
533 1 1 6.25412 5.30418 4.87756 2.79225
214 1 1 7.42586 5.04258 4.75112 0.968083
7663 1 1 9.50685 4.35732 5.01902 4.9263
1291 1 1 10.0529 4.4506 2.7996 1.7584
7644 1 1 11.8051 6.01498 4.16889 1.89208
588 1 1 12.5893 4.49003 4.07071 0.481529
3586 1 1 15.1763 4.88197 3.12886 2.14458
7725 1 1 13.9815 5.19457 3.46537 0.989039
4139 1 1 16.614 4.48132 3.53743 0.462423
928 1 1 18.3254 6.26821 2.93079 1.69967
7646 1 1 17.5327 5.58742 4.23585 0.600797
7992 1 1 0.208228 6.81056 4.14586 1.32599
1002 1 1 3.48225 5.76612 3.72436 1.59704
6804 1 1 0.99713 6.41745 5.02396 1.66553
2162 1 1 2.22611 6.71445 4.48095 2.13206
153 1 1 4.76974 6.14229 3.83557 1.16618
5747 1 1 5.65467 6.81343 3.77619 1.02215
2608 1 1 5.84324 7.21481 2.7507 2.98198
117 1 1 7.19427 6.09306 3.62515 0.861919
2311 1 1 5.03236 6.62696 5.72358 3.92346
7683 1 1 6.46439 7.24247 4.16206 0.471349
2589 1 1 8.29898 5.62406 4.19033 0.20889
553 1 1 9.28259 6.44771 4.46544 1.80348
7782 1 1 10.4727 6.45442 5.08876 0.422024
1784 1 1 10.6133 7.15052 3.80151 0.303459
1460 1 1 10.5642 5.36253 3.22544 2.72463
1927 1 1 12.985 5.83242 3.60116 0.767628
591 1 1 13.8777 5.98487 4.1537 2.95132
240 1 1 14.7168 5.64609 4.48723 2.58407
102 1 1 15.5799 6.02026 3.87614 0.940564
2798 1 1 17.7975 6.91435 4.60837 1.55789
1728 1 1 18.5284 7.53672 2.90129 0.944499
107 1 1 0.253447 7.8925 3.81014 0.319496
667 1 1 18.1446 8.42772 3.23669 3.82529
7242 1 1 1.00892 8.48181 3.5814 2.01107
7641 1 1 1.42638 8.9198 4.34219 3.16494
925 1 1 2.60931 7.82283 4.24177 3.12896
1717 1 1 3.72124 7.41064 3.0642 0.842872
5817 1 1 5.75514 8.48985 3.11816 0.353281
1217 1 1 6.62867 7.91799 3.31799 3.89883
404 1 1 5.47892 8.77896 5.47872 0.266637
1194 1 1 7.56081 8.82652 2.66962 1.37321
604 1 1 9.31085 7.72506 3.44669 2.15385
345 1 1 7.43163 8.53824 4.216 0.0192764
7538 1 1 10.2117 8.50528 3.51679 1.56176
7322 1 1 9.74294 6.41759 3.50991 2.78788
216 1 1 9.69632 8.344 2.34336 1.2842
1069 1 1 12.2955 6.7052 3.44287 2.65755
557 1 1 11.1553 8.0717 4.17868 1.43031
1833 1 1 12.7731 9.29585 2.64115 1.49862
7739 1 1 12.5556 7.65957 4.59719 2.42718
6619 1 1 13.5453 6.67214 3.10343 0.72921
7756 1 1 13.9986 7.52962 4.43209 0.342136
7983 1 1 16.0899 7.10411 3.53072 1.62711
957 1 1 14.6208 6.78429 4.65899 0.634769
622 1 1 16.6324 8.06375 4.30077 0.784393
7795 1 1 15.4837 9.15959 3.04468 3.15503
2151 1 1 17.1673 7.8848 3.23846 1.39233
230 1 1 18.7538 9.03948 3.89047 2.37688
765 1 1 2.9196 10.0568 4.15851 3.6493
626 1 1 4.1423 9.1036 4.33165 1.88422
478 1 1 5.26439 9.86285 2.33354 1.55412
842 1 1 4.98891 9.02166 3.57651 0.766589
7472 1 1 6.1474 10.4196 3.87098 1.60593
983 1 1 6.88476 9.34234 3.9678 3.53788
1105 1 1 10.5231 9.35507 2.16196 1.30372
3068 1 1 11.6543 9.32231 3.98283 0.418631
3406 1 1 11.1525 10.1858 2.01457 0.673255
1802 1 1 14.3336 7.92021 3.30967 1.35085
2578 1 1 13.8341 8.93112 4.82956 1.07766
1250 1 1 15.4472 7.4756 4.31622 3.62312
7470 1 1 14.9508 10.3059 4.40732 1.18092
1184 1 1 15.5292 9.40167 4.27471 2.50806
1677 1 1 16.7837 8.94199 3.16185 0.931795
1287 1 1 17.6474 10.7772 3.4082 3.89826
1082 1 1 1.3356 10.1163 5.18215 1.08037
1709 1 1 17.4171 8.98886 3.96643 2.84479
369 1 1 1.42306 10.9983 2.97753 0.277514
203 1 1 1.04261 11.5408 4.57446 0.0608408
7541 1 1 1.76407 12.3301 4.92783 0.542978
834 1 1 2.28414 11.1917 4.54461 0.356578
134 1 1 4.04164 12.0333 3.6432 0.567962
6842 1 1 4.09724 10.9015 2.3276 1.04779
6975 1 1 4.80521 11.0607 4.02547 0.82065
970 1 1 6.55382 11.8388 4.19121 1.54715
1475 1 1 7.01324 10.586 4.59743 0.858806
95 1 1 7.68279 10.8082 3.59183 0.517534
1968 1 1 8.33494 9.82544 4.08231 0.664514
6693 1 1 9.8193 10.855 3.16278 0.482201
7798 1 1 11.1142 11.0361 2.92574 0.087723
7531 1 1 11.1748 11.9908 3.19658 0.287586
7156 1 1 11.6718 10.2651 4.35801 2.52344
1848 1 1 11.7474 11.5583 4.19089 3.22551
38 1 1 14.3895 10.5454 3.38622 0.0911382
1072 1 1 14.6121 11.556 3.06947 2.11741
2638 1 1 16.0098 11.265 2.97572 1.35816
1438 1 1 16.2684 10.4333 4.89254 1.39403
6563 1 1 18.5339 10.5062 4.04683 1.70201
1836 1 1 17.1223 11.7785 2.92842 0.800278
1793 1 1 18.7498 9.83352 2.37188 2.08135
259 1 1 0.5375 11.6489 3.13604 0.260222
178 1 1 3.28626 12.3239 3.00197 0.420894
840 1 1 3.10821 11.9942 4.7655 6.80861
1264 1 1 5.48121 13.1029 3.36638 1.44549
487 1 1 8.15201 12.6475 4.39828 0.876113
7139 1 1 7.81716 12.2171 3.07434 1.75252
630 1 1 8.77944 11.44 2.51649 0.855966
3108 1 1 12.1166 13.6042 2.36279 2.09231
7834 1 1 12.1653 11.7949 3.21977 2.40726
1904 1 1 12.8027 12.0124 4.13238 1.2768
1799 1 1 13.8412 12.5127 4.83643 1.42553
451 1 1 13.9685 13.1095 3.36015 1.71187
1187 1 1 15.9903 12.5363 4.80421 2.52909
7089 1 1 0.076017 11.502 4.19886 0.871629
7670 1 1 18.2114 12.9015 3.20175 0.907079
5605 1 1 1.23603 13.9681 3.28279 1.64177
6665 1 1 1.82522 13.0079 3.29927 0.97107
245 1 1 3.26728 12.7726 3.98268 1.45145
7811 1 1 3.67176 14.0128 4.1157 0.859235
481 1 1 6.55971 12.7309 3.04516 4.0984
844 1 1 6.13319 13.9134 2.95457 3.69319
885 1 1 7.47824 14.4374 4.49684 0.689278
53 1 1 7.74802 13.4657 2.70918 0.404613
221 1 1 9.02681 13.322 4.52562 1.82797
1295 1 1 9.30115 12.4002 3.48822 2.84845
734 1 1 8.81327 12.8795 5.60977 1.87707
7893 1 1 10.2584 13.7328 3.99944 2.41089
7040 1 1 11.7004 13.1058 3.29916 0.235756
7551 1 1 11.4252 12.7993 5.18789 4.05906
7180 1 1 12.9372 13.187 3.8028 2.2663
1200 1 1 13.2648 14.4832 2.58203 1.3021
888 1 1 13.7366 13.6938 4.58802 2.20396
1676 1 1 17.5577 13.519 4.76447 0.0949717
854 1 1 16.6473 13.6323 4.07094 1.48868
6762 1 1 17.8571 13.6871 2.45585 0.503526
1340 1 1 18.6023 14.1622 4.24611 0.386719
7826 1 1 0.995724 15.0942 2.60666 4.07298
642 1 1 1.9343 14.6872 3.10172 0.557034
7840 1 1 3.10313 14.5962 2.64025 0.70874
7051 1 1 3.46581 16.1526 4.54554 1.30823
480 1 1 3.39906 15.5372 3.40962 0.723068
1505 1 1 3.37015 15.0074 4.41448 4.42109
1128 1 1 5.92873 15.6452 3.25044 1.20518
7174 1 1 5.22913 14.8516 2.62971 2.681
800 1 1 7.99278 15.452 3.93394 0.252341
1930 1 1 6.83244 15.376 4.29428 0.771318
1940 1 1 8.82489 13.2248 3.20924 3.96536
6946 1 1 10.1772 15.3713 3.17029 0.992002
7678 1 1 8.70476 14.6169 3.99526 0.455481
7856 1 1 9.88798 14.4368 4.64835 0.114627
3078 1 1 12.0058 15.3925 3.7811 3.41139