ITEM: TIMESTEP
2800
ITEM: NUMBER OF ATOMS
8000
ITEM: BOX BOUNDS pp pp pp
0.0000000000000000e+00 1.8820720577620570e+01
0.0000000000000000e+00 1.8820720577620570e+01
0.0000000000000000e+00 3.7641441155241139e+01
ITEM: ATOMS id mass type x y z v_temp
351 1 1 0.759185 0.942122 1.92455 0.250974
1198 1 1 4.2891 18.7278 37.5967 1.02291
1116 1 1 4.48898 1.51706 0.239521 2.17255
6280 1 1 2.01985 0.96409 0.290242 0.806266
6076 1 1 4.97299 0.599561 34.3536 4.86919
7613 1 1 5.21305 18.6581 1.35275 0.773271
775 1 1 8.82535 1.86879 0.973405 4.21757
6363 1 1 5.38177 2.66889 1.07534 4.72971
175 1 1 7.72257 17.5464 0.595407 2.37121
934 1 1 8.79749 1.908 37.4376 1.72652
1416 1 1 7.92873 18.4326 1.53629 0.244423
6582 1 1 12.7997 16.9064 3.04967 2.29632
1139 1 1 12.0643 0.823687 36.5603 0.984369
7873 1 1 10.1051 16.909 37.2466 2.28691
352 1 1 16.1395 -5.37285e-05 36.0733 0.6955
1377 1 1 14.2839 3.28023 1.83589 5.5112
7568 1 1 12.3731 18.5402 37.376 2.81734
1186 1 1 16.018 16.5436 2.26944 0.850866
1265 1 1 15.0503 2.27519 37.0423 0.639203
126 1 1 16.4262 0.255932 2.48584 0.558142
791 1 1 17.8133 2.0442 -0.000118982 1.24744
1999 1 1 18.4825 16.1594 1.21382 2.53306
383 1 1 0.574352 2.87977 2.48984 2.64532
7930 1 1 1.02395 1.54594 0.681568 0.812337
6845 1 1 16.4063 1.52827 1.74577 2.51108
31 1 1 0.398516 3.14936 3.43862 0.439433
1739 1 1 2.96407 0.669896 0.33969 1.98175
7604 1 1 2.78601 1.635 0.0750666 2.04477
155 1 1 5.00535 0.781412 37.092 0.703192
7785 1 1 5.48156 3.02293 2.45678 1.2023
1446 1 1 7.96283 1.34312 37.5403 0.980523
217 1 1 8.74545 4.26879 0.939175 1.31135
418 1 1 9.025 2.88007 2.0021 1.68217
726 1 1 10.7613 2.95265 2.9133 3.30987
2348 1 1 11.6891 2.01536 3.04026 0.709915
1333 1 1 10.678 2.91552 1.13897 6.04964
515 1 1 11.899 1.15012 1.31549 0.33277
7745 1 1 12.2066 0.865427 0.101887 0.797902
1270 1 1 12.5256 1.91771 2.36667 0.371829
6850 1 1 14.4744 2.18466 0.468726 0.932529
1037 1 1 16.8275 2.9417 1.34103 0.93024
1315 1 1 17.1566 18.6859 36.2262 1.04934
6006 1 1 0.327469 3.01415 1.05127 2.94682
508 1 1 18.1256 2.52214 1.04098 0.647637
1045 1 1 0.386604 4.42026 1.37734 1.56278
875 1 1 0.792462 6.24923 36.2748 4.17132
7718 1 1 1.82848 5.23968 0.51468 0.214361
6152 1 1 5.24275 5.51427 1.2604 4.8271
1348 1 1 5.52872 3.81615 3.61403 1.83825
6026 1 1 4.86436 5.56337 3.15386 0.610416
1850 1 1 6.34265 3.42241 1.66533 1.52945
1381 1 1 8.56878 5.91735 0.497995 3.2311
7861 1 1 7.55782 3.14141 2.53774 0.426348
7032 1 1 11.983 3.0646 1.52883 0.620307
1661 1 1 10.0913 2.64818 4.02201 4.93309
7588 1 1 11.283 5.33918 36.2222 0.965553
6060 1 1 11.1154 3.7481 3.43041 0.696224
1806 1 1 14.5156 3.76149 0.590181 6.12047
7155 1 1 13.0168 5.33778 2.03351 0.769373
437 1 1 11.0189 4.07186 1.14052 1.34858
7301 1 1 14.4963 1.23098 0.189158 1.27212
2221 1 1 17.3074 2.49487 35.7659 1.11197
7468 1 1 13.2687 2.65482 2.17174 0.38825
5355 1 1 16.1107 3.33362 0.704014 1.97743
223 1 1 17.0991 5.84626 0.739313 2.26561
2033 1 1 2.36158 3.47523 4.77079 4.01094
1401 1 1 1.51466 5.74399 34.7735 0.244876
7697 1 1 3.16713 3.93591 0.771848 1.41569
936 1 1 2.23779 5.58439 1.36433 0.346263
7904 1 1 4.85055 4.29765 36.225 1.77329
582 1 1 7.78966 5.95252 37.1077 0.770934
6922 1 1 8.19617 3.78172 1.90687 2.25385
7748 1 1 7.5123 4.95529 34.5971 4.16868
7387 1 1 7.24624 5.85356 1.31666 1.8074
6703 1 1 9.8016 2.60107 0.184814 1.2392
6551 1 1 11.84 4.9639 0.524448 2.62623
7408 1 1 10.1014 5.51863 36.9592 0.167221
6044 1 1 13.0695 6.02624 0.390602 1.16934
271 1 1 14.0009 6.45548 3.08047 2.34245
7320 1 1 13.0261 3.13062 34.8826 0.820226
7115 1 1 13.442 4.96266 0.652917 1.60751
1329 1 1 14.7067 5.87733 36.4087 1.75121
103 1 1 15.4707 6.20656 0.206449 0.815008
7091 1 1 16.0326 5.96433 37.0301 0.280354
7717 1 1 18.5164 9.50686 0.751346 1.31349
6161 1 1 1.84049 7.04545 36.1617 0.461843
137 1 1 0.542157 6.8378 1.9918 0.765662
7507 1 1 1.56175 5.34962 37.1207 2.715
1409 1 1 0.368704 6.08269 1.24305 0.0803918
7942 1 1 1.25271 8.58236 37.464 1.76904
6971 1 1 4.04419 7.65676 1.81248 1.99984
72 1 1 1.4122 7.08061 1.59068 2.33424
190 1 1 2.92809 7.07379 1.17607 1.168
6605 1 1 4.33713 5.59738 2.3008 3.38327
7215 1 1 4.48204 4.18247 3.3993 1.35269
294 1 1 6.70572 8.06334 0.508025 1.24516
7944 1 1 2.69238 7.32095 2.74726 0.166768
5747 1 1 6.19749 4.58809 3.62352 2.52724
429 1 1 7.62671 8.87815 0.0877915 0.708436
7094 1 1 9.32082 7.36025 2.83287 0.945223
21 1 1 8.33461 6.92658 37.1816 3.71445
61 1 1 10.6736 5.07226 0.924798 1.04912
6619 1 1 13.8432 7.58777 1.76622 0.89307
550 1 1 12.6416 6.25872 3.29247 3.22029
533 1 1 9.21549 5.29427 2.68156 1.70644
1664 1 1 13.6329 7.14633 0.280202 1.6956
486 1 1 15.0364 6.61391 2.78285 4.40145
591 1 1 13.6636 6.53916 4.25448 0.657438
164 1 1 13.4068 3.62565 1.92215 0.726303
762 1 1 17.2411 9.63803 37.1864 0.723943
6476 1 1 14.6201 6.93579 37.4658 1.09552
5857 1 1 17.4038 8.2288 0.150236 0.912727
354 1 1 6.52747 6.99711 37.3901 1.21418
6987 1 1 2.72223 6.20978 0.518564 0.773787
6874 1 1 5.92929 6.56896 2.01834 2.32523
1415 1 1 5.3232 7.83849 0.809823 3.48772
615 1 1 7.18296 9.33496 2.65834 1.93245
7740 1 1 7.6073 9.29432 36.7823 1.96634
7958 1 1 12.1833 6.21277 35.7528 1.00573
973 1 1 10.7465 6.78111 2.25672 1.7492
6463 1 1 8.59552 8.00853 37.4096 3.49399
91 1 1 15.2352 7.78991 36.7456 2.02194
1193 1 1 12.9163 7.77233 0.707757 2.27784
276 1 1 15.6343 7.93392 0.474041 3.02618
5649 1 1 0.663424 9.57977 0.386055 0.580434
371 1 1 16.7679 6.55177 37.3817 2.70176
1360 1 1 0.942308 7.4941 0.713571 1.42107
6196 1 1 1.60861 8.13849 2.30603 7.34229
6762 1 1 18.3385 13.4394 3.55434 1.8735
6126 1 1 5.43726 11.5368 35.9609 1.159
834 1 1 3.43853 10.2543 2.53701 0.885147
7326 1 1 5.19372 8.08642 2.03444 3.45456
1681 1 1 4.32661 8.64865 1.12254 0.177406
6584 1 1 7.16836 10.0441 1.47427 2.05403
7065 1 1 5.7099 9.73268 1.19055 1.83136
7943 1 1 10.7461 10.1893 0.375221 1.08349
1781 1 1 7.13691 6.63229 1.91349 2.14643
6497 1 1 9.7208 8.63422 0.940175 0.504253
7866 1 1 10.4329 9.03834 37.5431 1.08627
6699 1 1 12.8146 9.13512 36.4463 0.594926
574 1 1 11.9858 11.9879 2.2017 1.21682
7266 1 1 13.5749 11.5644 1.99815 2.72452
7983 1 1 14.8314 7.60569 2.50125 2.89079
7021 1 1 15.6112 9.07986 0.797592 0.99903
6599 1 1 0.335002 10.7796 35.4987 1.6815
6159 1 1 17.2362 7.83266 1.53813 0.691501
86 1 1 2.3926 8.47235 37.5816 5.40232
7621 1 1 4.10927 13.9259 1.37545 0.245993
7967 1 1 1.72479 10.6108 0.853245 2.41878
7047 1 1 2.63938 10.0778 1.5285 2.34645
6656 1 1 2.98263 11.9337 35.2434 1.05983
955 1 1 9.01441 10.0514 2.05692 0.671947
6842 1 1 6.59648 12.0646 2.41781 3.37448
7002 1 1 8.66326 9.56205 0.563967 1.56818
1790 1 1 8.38614 10.4266 1.31672 1.26638
6380 1 1 5.18728 8.30129 34.7271 1.57473
6933 1 1 7.87186 7.9941 0.72231 0.369675
721 1 1 9.51765 8.51146 37.5 0.540672
6752 1 1 13.1626 11.8461 36.3032 1.87593
6527 1 1 13.0548 13.0485 0.111472 1.48993
38 1 1 13.9304 10.4157 3.01956 1.07436
678 1 1 9.8755 9.9703 37.4879 0.130916
423 1 1 13.0223 11.7889 37.5881 1.09974
1074 1 1 14.5866 9.28269 0.45955 0.168779
1068 1 1 16.6448 12.4939 35.6417 0.657407
969 1 1 14.223 10.7959 1.19768 1.30932
1349 1 1 18.0514 9.90879 37.5981 0.235848
634 1 1 18.0719 11.6916 0.808312 1.08755
7772 1 1 17.8467 12.2476 1.82627 0.664593
7836 1 1 1.34925 13.4313 34.6351 1.99447
7855 1 1 2.5084 12.2445 36.7591 1.916
549 1 1 2.6124 11.9406 1.0076 2.69217
773 1 1 2.84743 10.91 2.10644 1.14952
7056 1 1 3.3694 12.0363 2.56908 1.57908
8000 1 1 4.54196 10.3108 1.86181 5.47714
7854 1 1 3.46388 8.41861 1.54244 2.25692
1432 1 1 8.66004 13.5742 2.98826 1.35749
829 1 1 5.83174 12.2436 36.5091 1.56229
10 1 1 8.60727 11.2596 36.676 2.71943
6399 1 1 8.48098 15.2992 0.461203 3.15239
6939 1 1 11.1379 12.8921 36.1041 4.58726
1103 1 1 11.2782 16.4542 0.851937 1.26075
236 1 1 8.06192 13.7946 37.2014 0.433688
7548 1 1 16.1947 9.90486 37.5172 0.491149
2320 1 1 11.9333 12.4908 0.642584 4.38683
6590 1 1 15.1065 14.8303 3.58201 1.37565
7993 1 1 14.6416 12.5747 35.0502 0.435556
2353 1 1 15.3911 11.0409 1.74858 1.05838
7670 1 1 0.513653 12.9931 2.09462 0.429366
1676 1 1 16.7144 12.1294 3.46143 0.542401
1567 1 1 17.6121 12.6565 37.5757 1.00283
7947 1 1 1.64757 16.6364 1.52183 1.03381
962 1 1 18.5808 14.0518 0.797208 0.628721
4804 1 1 2.97945 13.3111 2.28736 3.20307
7957 1 1 4.48658 16.0329 3.24576 5.53246
1350 1 1 3.10448 12.7039 36.0565 2.77798
7217 1 1 4.55693 15.3867 1.15334 3.93119
6232 1 1 3.78736 12.0673 1.26254 0.419851
287 1 1 4.72184 13.0878 36.603 0.884341
7248 1 1 4.24792 16.1892 0.0804262 0.143199
239 1 1 7.70076 16.2464 1.15339 0.567253
1144 1 1 9.52213 15.3282 0.142234 1.39455
1295 1 1 9.83999 13.863 2.72017 1.85802
976 1 1 13.0421 11.8697 3.55786 1.9196
7680 1 1 12.7394 15.1418 1.13822 0.716399
297 1 1 15.7304 14.3853 36.64 1.0464
7052 1 1 14.6935 15.4343 2.52811 0.192997
7853 1 1 18.0646 13.302 36.7357 1.47054
2409 1 1 17.3914 14.8412 -0.0373188 3.16409
7338 1 1 15.2677 13.4287 1.85119 2.39507
1529 1 1 16.5621 16.0362 1.10872 3.02195
7926 1 1 1.37358 15.411 36.0683 0.701629
686 1 1 3.03155 18.7326 3.56496 1.97367
7101 1 1 2.84745 17.3437 36.7784 0.412067
7454 1 1 2.20952 16.2092 35.3474 1.01925
558 1 1 4.36077 15.5467 5.49482 2.68805
1481 1 1 5.07411 16.4204 36.4078 2.16602
844 1 1 5.74451 14.0278 2.60872 2.01244
1210 1 1 6.63518 13.9064 0.839553 0.116055
7891 1 1 10.728 15.7144 1.83941 5.63482
7180 1 1 12.1818 13.2849 3.90095 2.35815
7543 1 1 14.2307 14.8781 36.5355 2.20316
389 1 1 13.0966 15.7721 37.5748 2.47925
432 1 1 13.6814 15.5289 3.40406 0.242126
653 1 1 14.9882 18.3833 1.85781 0.239287
393 1 1 16.4924 13.1492 37.171 3.33186
7390 1 1 16.6023 16.5084 35.119 0.180235
1406 1 1 17.4173 15.5376 1.62214 0.904803
579 1 1 16.1697 16.6754 36.5785 0.672931
7451 1 1 1.16487 17.7486 2.32074 2.10241
1569 1 1 1.76367 18.1945 35.5433 0.492306
757 1 1 0.687971 15.8076 0.480559 2.09355
7569 1 1 5.38941 13.8448 35.747 0.432271
1729 1 1 5.34199 15.7261 2.73455 3.38575
605 1 1 6.6575 17.3833 1.12929 1.36269
1995 1 1 5.34034 15.8707 0.519803 0.473704
7303 1 1 6.88766 16.3359 0.492028 3.70117
1582 1 1 5.28904 17.3296 35.5303 1.22389
13 1 1 7.90495 18.5241 37.2472 4.13882
1206 1 1 8.71192 18.7823 35.63 0.357104
6851 1 1 8.89698 16.691 0.20477 0.582049
7452 1 1 11.467 17.3095 2.52498 0.795024
7149 1 1 10.9432 0.832963 0.361767 0.832261
433 1 1 11.3025 13.9545 2.60723 0.124915
7341 1 1 14.3462 16.3534 35.3192 0.701817
1110 1 1 15.884 16.7669 3.47942 2.81664
356 1 1 16.7333 15.7478 36.5813 2.77324
629 1 1 14.7692 15.1684 1.0906 0.857502
1042 1 1 17.7241 16.5842 1.78277 2.72697
5999 1 1 0.236614 17.047 35.1265 1.33356
7892 1 1 1.65681 16.6903 36.0621 0.939766
129 1 1 3.99912 0.682757 35.1768 0.206186
6688 1 1 3.3559 17.7741 3.10167 1.43901
692 1 1 3.84923 0.210273 0.948946 0.75642
6713 1 1 3.37924 18.394 37.2194 1.92337
7404 1 1 2.58324 15.4582 2.10493 0.838224
835 1 1 3.88249 15.7834 34.8965 1.2069
6835 1 1 4.96287 14.861 37.1941 0.410789
566 1 1 7.11939 0.641216 37.604 0.758386
6914 1 1 8.3123 17.1435 36.8803 0.698936
5985 1 1 10.7994 16.168 37.4459 0.835558
472 1 1 13.3396 16.5547 1.23178 0.537949
7672 1 1 15.9267 15.3295 37.1199 3.43024
2287 1 1 17.4447 0.833481 36.4035 2.70141
6092 1 1 12.289 16.7772 0.487683 1.68918
7106 1 1 18.7228 16.6159 34.1923 1.86647
7202 1 1 17.5331 1.57197 1.50972 3.76702
2662 1 1 17.988 16.9905 0.540144 2.21765
7261 1 1 0.362076 14.5598 0.0437852 3.64447
194 1 1 18.2676 1.68251 3.19405 1.28851
954 1 1 0.608686 16.6798 2.02263 1.00075
643 1 1 1.51939 3.59191 1.84865 1.84618
7818 1 1 6.4054 1.4481 2.72525 3.05276
3146 1 1 5.63566 1.70892 37.3063 1.37977
1279 1 1 3.32747 1.28062 1.14095 0.33404
7166 1 1 5.81028 0.675083 0.497298 1.14479
1140 1 1 7.71589 1.41615 0.962543 0.97963
895 1 1 8.68306 0.930336 0.56177 2.30272
700 1 1 11.4899 1.04163 4.2371 2.91653
6986 1 1 9.30931 17.6308 37.2685 2.37347
1708 1 1 10.4796 15.6275 4.37023 0.729084
505 1 1 12.9358 1.30114 1.07957 2.54394
2106 1 1 12.6666 17.8581 0.524849 0.956324
640 1 1 11.3141 15.8768 3.9018 0.578519
7440 1 1 15.4283 2.05835 1.88202 1.0942
1928 1 1 17.8295 18.314 1.98917 1.11604
1672 1 1 18.7029 0.865113 0.950193 0.358958
7992 1 1 1.23147 5.78247 3.57902 0.555326
7938 1 1 1.48706 4.87666 1.63236 0.838455
656 1 1 4.56122 2.77804 3.99904 1.50138
489 1 1 3.21715 2.94588 2.25606 0.773376
1309 1 1 6.70508 2.65806 2.80527 2.22171
6942 1 1 7.58489 0.523424 35.9927 1.62325
7535 1 1 8.93443 1.71867 2.3906 2.4537
7332 1 1 11.1295 2.23406 36.5458 1.90149
6477 1 1 8.67602 2.3818 3.46602 1.50684
94 1 1 10.2802 18.6506 2.45652 0.226127
6659 1 1 10.4701 0.603423 1.75023 0.839726
82 1 1 8.07384 4.13171 2.84384 0.856122
1993 1 1 9.85561 17.8414 1.6783 2.00591
511 1 1 12.2535 17.269 1.66093 2.38652
1339 1 1 11.2784 0.935378 2.47888 2.38853
122 1 1 10.2824 17.2407 0.618305 2.56247
3071 1 1 14.2934 2.34621 4.06533 1.05992
1183 1 1 14.1833 2.17536 1.43836 2.29604
1591 1 1 17.1847 2.49084 2.31311 0.104112
149 1 1 18.6383 1.73114 1.93966 0.934237
1020 1 1 15.4751 2.00708 0.533293 0.52365
7088 1 1 17.779 0.318804 1.03389 1.15998
7841 1 1 2.04182 4.79177 2.87626 3.01562
366 1 1 2.50687 4.56909 1.32357 0.156698
406 1 1 3.80021 3.91131 1.77125 1.36149
509 1 1 1.69211 4.22058 4.0623 0.598327
2824 1 1 2.00858 3.5088 0.398584 0.918898
3 1 1 5.62077 5.46156 2.16699 2.90898
1237 1 1 4.40931 4.43832 2.45542 0.218284
7503 1 1 5.18016 4.56746 0.563001 0.803473
7663 1 1 8.56461 5.2739 4.82965 2.49159
7653 1 1 9.17188 3.10028 0.749256 0.707784
661 1 1 6.5389 3.60992 3.12364 0.347161
56 1 1 6.75416 1.23158 1.51164 0.122804
570 1 1 8.59713 6.46891 4.96509 0.488002
3337 1 1 12.7421 2.32139 1.26824 0.961398
1648 1 1 11.8474 4.36299 2.85073 1.68853
980 1 1 11.2058 18.7481 2.03701 1.33855
1239 1 1 12.8476 4.37021 3.52644 3.45549
6241 1 1 15.1018 2.95513 0.705268 1.14893
651 1 1 17.3121 4.97218 2.48636 1.10574
115 1 1 0.197263 3.92786 2.6722 0.813893
7937 1 1 1.03491 2.38279 3.73341 0.95723
314 1 1 18.6264 4.83316 3.0366 2.02546
7284 1 1 0.976444 4.63184 2.63055 2.33999
7631 1 1 4.86603 5.6293 6.10393 2.88149
68 1 1 0.159179 5.12909 0.167977 2.0937
7660 1 1 2.9109 4.10984 2.31224 0.746944
1714 1 1 4.89043 5.90993 0.205599 1.71412
7643 1 1 9.12518 7.21725 0.926825 2.16471
7644 1 1 11.0761 4.44173 1.9402 2.67566
553 1 1 10.631 6.14641 3.36316 5.6294
7348 1 1 10.1808 5.27048 2.0157 0.28748
588 1 1 11.8227 5.40074 4.7181 0.790153
1826 1 1 13.6032 4.18695 4.50174 0.150322
1833 1 1 13.006 7.40364 3.29431 3.18674
469 1 1 13.9855 5.88944 37.5556 2.08317
7358 1 1 16.7301 4.46384 1.41155 0.512962
802 1 1 18.7744 5.99519 3.17273 0.191446
7659 1 1 16.4073 6.44147 1.24829 0.786907
3092 1 1 16.2541 5.63018 2.0497 0.540068
1287 1 1 17.4414 9.25655 5.84399 0.824128
5817 1 1 4.70405 7.53849 2.90184 3.01906
7242 1 1 2.15743 8.14447 3.59945 0.153286
7803 1 1 2.21777 6.49774 1.74757 1.16528
7738 1 1 6.11925 6.34418 0.99776 2.71407
1596 1 1 1.32851 8.38358 1.27386 1.91562
1427 1 1 1.63107 6.25734 0.820056 0.300742
214 1 1 8.20261 5.10139 2.1485 0.159293
1076 1 1 10.4271 6.30279 37.6178 2.01888
1369 1 1 8.31741 2.97942 4.31128 0.932661
117 1 1 7.06268 7.35678 2.81171 1.00138
7625 1 1 10.0311 3.84668 0.892097 3.67343
7972 1 1 14.3509 4.94241 4.66539 3.14523
140 1 1 12.7672 6.2352 2.30035 1.4944
7719 1 1 12.3758 5.78521 1.37009 0.680414
7185 1 1 14.1961 4.63366 3.63526 0.0558803
1537 1 1 14.055 6.50277 1.44879 1.22463
7544 1 1 14.8094 5.62336 1.24012 3.76202
6995 1 1 1.58344 11.3421 5.1209 2.07396
6975 1 1 4.38094 9.6238 3.0214 1.38557
1562 1 1 1.9311 7.17277 0.683397 1.83581
926 1 1 0.305031 8.50073 2.4014 0.509869
7472 1 1 6.06243 9.15648 3.14267 0.0109044
925 1 1 4.19806 8.36436 2.71525 2.80024
529 1 1 6.15582 8.45294 1.43247 5.73033
1547 1 1 5.0133 10.8043 1.00558 0.701773
1224 1 1 7.28162 5.32885 0.101814 2.80168
1194 1 1 7.54171 8.34448 2.80745 1.48345
1107 1 1 10.941 7.6062 3.85563 1.11159
6566 1 1 9.43588 6.63454 2.00969 2.77191
519 1 1 13.8255 5.95919 5.43477 1.31066
2244 1 1 11.3197 5.63331 1.53953 3.59077
277 1 1 10.9613 8.02524 1.08804 3.33245
5690 1 1 11.6485 7.06658 1.6538 5.88759
543 1 1 12.9955 7.31727 2.24535 0.989916
102 1 1 15.9957 7.03056 2.90284 1.32062
913 1 1 15.0431 7.8738 1.27658 0.289803
669 1 1 16.4559 8.30761 1.14088 1.01503
6675 1 1 17.3773 8.8331 3.28659 2.64235
107 1 1 0.610462 7.98417 3.30395 0.182387
1036 1 1 1.45572 12.0052 37.2283 2.6005
178 1 1 2.38853 11.3112 4.14516 0.953188
1863 1 1 5.23463 9.13301 2.07764 0.435203
369 1 1 1.30309 9.83141 1.44584 1.64923
2311 1 1 5.98756 7.69848 3.81374 0.595575
1046 1 1 6.77576 11.3822 1.2156 3.61876
238 1 1 9.13795 10.7721 0.0764883 1.37919
985 1 1 7.8243 5.39081 3.61616 2.18301
7538 1 1 9.02965 10.0118 5.00965 1.25554
341 1 1 12.1188 7.73637 4.5619 0.322728
7156 1 1 11.3611 9.55747 2.69466 1.25289
610 1 1 11.4553 9.40803 0.640723 0.564388
1487 1 1 10.0447 10.5588 3.65595 2.06811
7945 1 1 13.9636 8.06883 0.671188 1.1599
1906 1 1 14.7793 8.86715 1.45916 4.7161
79 1 1 15.9665 8.09019 2.63091 1.21381
247 1 1 2.5453 10.2526 3.26633 4.42137
7851 1 1 1.33984 12.5395 1.86329 1.0275
230 1 1 1.08537 9.92326 3.1584 0.337644
300 1 1 0.492384 11.405 4.39704 0.264947
7966 1 1 0.268377 9.74474 2.42377 3.44603
445 1 1 1.97682 12.6032 5.35735 1.92896
765 1 1 3.89473 9.16824 1.98387 0.225884
340 1 1 4.35677 10.1757 0.356807 2.90857
1264 1 1 4.86738 11.3046 3.89175 1.14026
481 1 1 4.70751 11.9843 2.62119 1.30391
1389 1 1 4.65968 12.0332 5.03791 0.049091
7335 1 1 8.70731 7.89077 1.63325 1.07338
4198 1 1 9.9427 8.83507 5.53336 4.26362
1069 1 1 11.9268 8.75874 2.31485 2.4112
2814 1 1 10.0726 10.35 2.51643 6.23055
1385 1 1 9.60968 10.7047 1.14204 3.26669
6693 1 1 11.4344 10.4347 3.8115 1.09362
386 1 1 11.2775 10.9076 2.10667 1.30825
7913 1 1 15.6245 9.61245 1.86426 2.03321
374 1 1 13.0679 10.0544 2.17597 0.449416
818 1 1 14.6349 11.016 2.43657 0.757807
1234 1 1 17.1617 13.1203 5.37612 1.0804
7800 1 1 16.7307 10.6995 0.16868 0.697538
336 1 1 17.64 13.7313 0.296237 0.988201
7089 1 1 18.1433 12.4813 3.84328 2.4699
259 1 1 1.60404 11.9484 3.25429 0.448793
245 1 1 1.22716 12.8627 3.47747 3.37804
7811 1 1 4.18375 12.4117 4.17271 0.942654
584 1 1 5.74116 12.9846 5.17932 1.53363
704 1 1 5.11958 13.1454 1.90006 1.26808
769 1 1 7.21748 13.0468 1.24264 0.908074
6646 1 1 3.14962 12.5724 4.54152 3.83356
815 1 1 5.75396 15.5496 1.40545 0.853535
1542 1 1 8.01275 11.8127 -0.0162936 2.27929
7704 1 1 10.0749 12.9046 3.02929 0.13751
1475 1 1 8.19612 11.5952 4.19977 0.211228
7459 1 1 7.04101 11.8102 3.29878 0.793895
563 1 1 7.98332 11.4205 2.24074 2.17455
734 1 1 9.5313 13.5213 4.08374 2.57755
6723 1 1 11.0966 11.3498 1.04239 0.898523
7004 1 1 11.7107 9.97955 1.66102 2.26251
7834 1 1 11.8884 12.711 2.9073 1.94087
2150 1 1 11.8565 11.9747 36.7016 3.00364
627 1 1 15.9268 12.374 1.30178 1.95071
1514 1 1 15.4926 12.9814 36.8792 2.44626
712 1 1 14.681 14.0959 7.30018 3.31661
234 1 1 0.0582668 15.6209 1.9579 2.13962
1082 1 1 18.6596 10.7649 3.06103 1.87449
1971 1 1 2.28857 12.5693 2.58882 3.69254
6459 1 1 3.57902 13.3494 3.51523 3.15456
7060 1 1 2.9847 13.7897 0.926667 0.674864
6600 1 1 6.54564 12.808 3.11571 0.615644
487 1 1 7.47716 13.2241 2.35649 0.774387
365 1 1 8.27953 14.3936 4.14373 1.10759
53 1 1 7.49363 14.5081 3.14837 0.541059
1165 1 1 11.0952 12.7492 37.5637 0.745803
7984 1 1 10.8329 13.6549 37.1171 1.33631
286 1 1 12.1539 13.3667 37.0249 2.20264
416 1 1 9.76674 12.5148 1.64495 0.963079
6750 1 1 15.3176 12.7354 4.40006 0.320852
1187 1 1 14.2386 12.103 2.87535 2.11916
1904 1 1 12.8742 12.7534 3.10018 0.233165
7444 1 1 15.3916 14.3459 2.3728 0.135512
375 1 1 15.4138 14.4169 0.62215 1.54898
1282 1 1 1.73746 15.6895 1.38384 0.309761
1561 1 1 4.51502 16.4155 1.4388 1.04367
785 1 1 3.80708 15.42 2.66276 0.401986
504 1 1 5.51842 16.6895 1.47133 2.46068
1527 1 1 5.80735 16.7956 0.32733 3.21515
2046 1 1 8.07038 16.2879 4.12272 2.03346
7489 1 1 6.55186 13.7669 2.09258 1.37881
885 1 1 6.39669 14.4413 3.3451 0.201431
902 1 1 7.61172 17.1745 4.75547 0.276953
1940 1 1 7.31389 15.6553 3.60812 4.13477
2224 1 1 11.315 17.7654 1.45699 0.270047
961 1 1 6.77658 15.1823 0.887491 0.899145
7893 1 1 11.0448 14.5707 3.59594 0.278062
7757 1 1 15.7699 15.4074 0.661843 1.53814
93 1 1 16.7604 15.055 4.96045 4.12601
1077 1 1 16.0564 13.326 2.51874 1.26154
1614 1 1 18.3545 15.8009 3.38736 1.39186
7951 1 1 0.849607 17.7122 1.21613 2.88093
7116 1 1 0.0281359 17.5714 2.01577 0.795756
439 1 1 3.21519 13.1581 37.3261 0.645481
1634 1 1 2.6861 16.3761 1.94461 0.194294
7934 1 1 4.39624 17.2203 3.73131 0.706772
763 1 1 5.95029 17.3135 2.25891 0.455827
7620 1 1 11.186 14.4366 1.49556 1.44903
1196 1 1 8.98262 18.3865 1.50303 2.49899
338 1 1 10.9503 16.5522 3.11538 1.14084
1167 1 1 12.3537 15.2913 3.66143 2.20919
7163 1 1 14.141 15.9137 1.38968 1.03506
820 1 1 13.7523 14.4767 1.03728 0.734755
1308 1 1 14.2713 17.0416 0.518179 0.709783
1479 1 1 14.0279 17.1476 1.84817 0.926432
1638 1 1 1.37324 15.7027 37.215 0.353194
328 1 1 1.224 0.10084 37.2524 3.25081
859 1 1 0.911199 1.56189 36.9151 0.48243
611 1 1 3.04577 17.2485 5.4931 1.18951
6866 1 1 7.68287 2.00249 2.20701 0.709189
687 1 1 6.0418 15.0317 2.34156 1.76048
7300 1 1 6.66694 18.492 2.14163 1.0659
1328 1 1 5.96121 0.385932 2.32788 1.44171
96 1 1 7.1684 18.2629 3.36536 1.78752
6079 1 1 7.55399 0.52248 1.81541 3.54297
173 1 1 7.58648 18.3899 34.793 0.920365
7950 1 1 9.90543 16.2008 0.41096 2.34516
696 1 1 9.68945 17.4008 3.71807 0.780348
1616 1 1 11.9733 17.7493 4.20694 1.4619
20 1 1 13.3762 13.0962 1.16493 1.95906
1588 1 1 13.292 0.258628 1.2507 1.51158
6872 1 1 15.43 15.6154 1.79981 0.496992
881 1 1 18.2573 16.8072 2.63877 1.01667
1269 1 1 16.2419 17.7536 2.73588 1.78519
7497 1 1 16.2037 17.4114 1.64548 0.0410486
7744 1 1 16.1496 18.4497 1.58929 4.05303
1607 1 1 18.5749 0.66554 2.38689 0.428648
18 1 1 16.9155 0.146547 3.4757 4.56637
2026 1 1 2.01223 1.72212 0.96469 0.627796
547 1 1 4.50591 0.521546 2.75883 0.555662
1327 1 1 5.61287 0.291434 5.99738 1.66349
633 1 1 3.465 2.75417 4.20756 0.630578
1738 1 1 3.20129 1.77256 3.97354 1.12048
2126 1 1 8.82907 17.215 4.45851 4.77145
7982 1 1 7.90489 18.0474 4.32122 2.1895
1168 1 1 9.13249 0.874397 4.15007 1.10997
497 1 1 7.90866 18.6469 2.62073 0.112078
1579 1 1 10.6693 17.5443 4.18368 0.714525
7150 1 1 9.79351 0.136438 4.68157 2.16416
7821 1 1 11.7116 0.488474 3.27003 2.17089
7669 1 1 13.1159 17.8467 3.93671 0.294345
7980 1 1 14.0829 18.2905 6.14452 1.97751
2270 1 1 11.9449 1.19722 5.68982 0.871641
430 1 1 14.1243 0.687795 2.85938 2.52534
1413 1 1 18.3578 0.62206 5.6722 1.783
867 1 1 14.3859 1.10731 3.85165 6.23136
7028 1 1 14.9944 1.79195 3.0563 0.211267
853 1 1 15.3445 3.01883 2.30295 1.40326
1443 1 1 1.02089 0.842915 3.94005 1.61544
879 1 1 18.7479 0.227113 3.90174 1.5667
2030 1 1 4.50932 1.90949 2.97457 5.0537
109 1 1 2.14908 1.49962 3.85109 1.8118
7251 1 1 2.81542 4.49592 3.83251 0.260281
915 1 1 3.52542 1.7529 2.48545 1.02045
1543 1 1 7.41239 2.915 3.52621 1.07181
1322 1 1 3.57238 3.77747 3.67809 1.88324
7989 1 1 4.76064 3.6466 4.58455 1.3567
454 1 1 8.26079 1.56976 4.12984 0.361176
1466 1 1 9.66185 0.999806 2.73959 0.657386
824 1 1 10.8211 18.7892 4.20768 0.371056
1213 1 1 16.0843 1.73179 2.89851 3.04797
906 1 1 9.94494 16.5551 2.27508 0.0576015
409 1 1 13.1923 0.764902 2.56044 0.46655
2075 1 1 13.6464 0.230204 4.46168 1.74196
1473 1 1 14.688 17.8299 3.4723 3.01367
1044 1 1 12.7514 2.23343 4.46688 0.896803
1223 1 1 15.4277 3.89539 1.23934 0.367479
387 1 1 12.5591 2.63849 3.60241 1.0565
7601 1 1 17.0498 4.20004 5.87028 0.9141
206 1 1 1.82183 0.998572 1.80524 0.880704
148 1 1 2.92086 0.345169 5.6106 1.90329
874 1 1 0.122065 2.41994 4.57918 1.33576
7280 1 1 1.20898 2.80624 4.78849 2.89227
1374 1 1 0.377598 4.12013 3.60573 0.262415
6648 1 1 2.93123 3.5478 7.01475 1.18279
774 1 1 1.03532 4.22483 5.15243 0.127048
7123 1 1 6.16869 4.32947 2.38199 0.381092
2917 1 1 2.56369 3.34502 2.95801 1.02974
1365 1 1 3.98709 2.79103 2.88188 0.211177
7921 1 1 3.59837 5.02172 5.84339 1.11839
7685 1 1 5.68597 5.47866 3.68099 2.36588
1488 1 1 6.11202 2.47784 3.89207 1.84268
2177 1 1 9.90532 2.36093 2.61945 1.92972
1208 1 1 6.44536 3.03072 5.01712 0.907611
544 1 1 11.256 3.04134 4.30205 0.383622
623 1 1 11.2422 18.0846 3.32598 1.7211
7010 1 1 13.1665 5.00656 4.80841 1.25993
446 1 1 11.8815 3.36277 2.87123 0.593003
2139 1 1 15.0208 4.18911 3.10618 0.474358
2867 1 1 13.334 1.50036 3.97927 2.18157
1539 1 1 15.4807 2.90691 3.6694 1.70613
1422 1 1 15.8336 2.50941 5.07125 0.501231
7914 1 1 16.3854 3.75408 4.94237 4.01553
828 1 1 13.7267 1.65651 2.61382 0.865541
982 1 1 18.1597 3.34152 3.34 5.51016
1041 1 1 17.2079 3.6828 2.01504 1.47933
47 1 1 17.701 6.32404 5.29546 0.683744
1659 1 1 0.139847 4.46461 4.59228 1.51715
15 1 1 1.87689 6.93699 3.99578 0.826611
548 1 1 1.34948 6.97354 6.6823 0.905115
7924 1 1 4.05569 4.80629 4.60078 1.59536
125 1 1 6.54573 4.4697 1.17548 0.44092
1723 1 1 4.55388 4.80009 1.38159 2.97269
98 1 1 9.30358 5.61383 5.72261 1.54122
2318 1 1 6.96226 4.90231 2.85763 1.80948
796 1 1 10.5913 5.02083 2.87636 1.81583
6136 1 1 9.64898 3.26402 2.92127 2.05218
7666 1 1 12.8184 4.0525 5.47252 5.37285
183 1 1 9.26168 4.15175 1.77022 3.91664
1203 1 1 16.2236 3.77001 3.15702 4.22229
2017 1 1 14.2666 10.1573 4.97348 0.377581
7273 1 1 15.7845 5.40659 1.01581 0.621826
7998 1 1 16.9383 3.64857 3.9104 1.58076
75 1 1 0.250257 3.44977 5.18572 1.25634
6396 1 1 0.748519 6.79618 4.28808 2.57845
1002 1 1 2.88751 6.58402 3.70589 0.823411
6848 1 1 1.89014 10.507 4.48878 1.12293
1883 1 1 5.43959 5.48111 5.03494 0.968535
7879 1 1 3.56996 4.69344 3.01826 0.790104
1717 1 1 4.756 6.6237 3.80299 2.02356
6767 1 1 5.09188 6.69815 1.15885 0.428306
1864 1 1 2.42164 5.68508 2.29121 2.52821
131 1 1 6.79326 6.94821 4.96778 2.34121
188 1 1 7.13837 4.11696 2.0676 1.6346
1217 1 1 7.32349 8.22275 4.15613 1.16415
7782 1 1 9.51528 5.76654 4.09574 0.448066
564 1 1 10.1559 5.98196 0.953117 0.975569
6538 1 1 11.6272 6.41707 4.97057 0.410162
1927 1 1 11.7335 6.52931 2.72625 1.28941
1051 1 1 14.7442 7.05059 5.24377 0.669759
7611 1 1 15.5844 10.3358 5.48822 1.07499
285 1 1 14.5567 5.71705 3.69909 1.08749
5812 1 1 15.3826 4.65726 1.91313 0.25436
108 1 1 14.3201 5.16804 2.57713 0.944247
602 1 1 15.3806 5.1841 3.02568 2.61616
1338 1 1 1.08986 5.7625 2.17713 0.809329
928 1 1 17.2992 5.53021 4.1672 1.20351
1399 1 1 0.244173 8.26178 0.886757 2.9969
2747 1 1 17.7502 8.17337 5.8051 4.4167
996 1 1 2.90415 9.55661 4.53857 2.13122
357 1 1 4.94907 8.6448 3.3639 0.382432
626 1 1 3.4157 8.46907 3.48271 2.1596
983 1 1 7.384 9.7071 3.67403 0.941605
568 1 1 8.30475 6.84427 1.63542 0.746547
344 1 1 8.4339 9.11564 4.4158 0.290181
2980 1 1 10.2836 7.60286 5.31804 2.24522
7322 1 1 9.57263 7.08764 4.5009 3.82101
1784 1 1 10.3791 6.52327 4.44488 0.139302
648 1 1 11.2946 9.26281 5.55403 0.120579
738 1 1 11.8626 8.39922 1.30911 0.366279
1802 1 1 12.9977 8.78183 2.3546 0.609083
1513 1 1 15.4518 9.03143 5.61371 0.409185
596 1 1 14.1489 9.88178 1.67109 2.84679
235 1 1 15.9979 7.39459 1.35354 0.693406
240 1 1 16.5195 6.52611 3.85372 0.802614
6875 1 1 0.0774687 6.82835 0.712764 0.55239
2798 1 1 0.694072 8.79569 4.17583 1.68998
134 1 1 3.41379 10.6379 3.83678 1.13887
440 1 1 4.06038 9.62548 4.05795 1.92804
1417 1 1 4.81359 8.87176 7.30861 1.20371
1001 1 1 8.00175 10.2543 2.28901 6.13046
604 1 1 8.16594 9.24701 2.3577 1.90664
1211 1 1 9.90184 8.15503 3.28145 0.205985
95 1 1 7.65831 11.0196 3.26549 0.581685
345 1 1 9.40779 8.46432 4.23395 5.0511
1460 1 1 12.078 7.53781 2.70498 0.31195
7867 1 1 11.9831 8.25383 5.60433 0.197235
241 1 1 12.5303 9.66296 5.11053 2.01726
1250 1 1 13.9134 9.0478 3.43215 1.54709
2587 1 1 14.9912 9.05436 4.54986 3.74708
790 1 1 15.3505 9.51448 2.90216 4.63257
7470 1 1 14.6768 9.81655 3.74308 1.71288
6561 1 1 18.0688 7.97899 2.48038 4.1231
7432 1 1 17.813 10.4091 2.6566 5.49242
1113 1 1 15.2218 6.64506 6.4593 0.822049
863 1 1 0.467936 11.5531 5.90227 1.07669
7721 1 1 6.22565 7.7956 2.73669 3.57441
1093 1 1 0.32188 11.938 3.41089 0.354938
7474 1 1 1.69894 11.3608 6.12193 2.49515
399 1 1 3.82849 11.5405 3.57322 0.458878
2882 1 1 4.97053 9.96369 4.08226 0.406992
970 1 1 4.48386 10.5848 4.81936 0.511915
7862 1 1 3.00651 13.046 6.80844 2.35218
2265 1 1 9.35633 11.0042 4.27915 1.80092
1727 1 1 5.47287 12.8762 3.84866 0.326152
478 1 1 5.79192 11.4376 3.06923 2.29099
825 1 1 10.6555 9.31046 1.77407 1.12895
1296 1 1 9.26291 8.895 1.934 3.48525
7573 1 1 9.65282 7.25125 0.0389491 2.99797
378 1 1 9.2067 12.3147 37.451 1.30571
1332 1 1 11.0678 8.67552 3.64879 0.188379
1438 1 1 14.6603 10.8617 4.2037 1.37289
7979 1 1 13.7399 11.8495 6.0458 2.54337
1189 1 1 15.2629 11.7702 3.04399 0.53706
1072 1 1 13.5102 11.1623 3.97679 0.0883716
1143 1 1 16.3963 10.8891 3.0187 1.73679
1728 1 1 18.6048 7.56643 3.89686 0.457215
622 1 1 17.7534 9.43897 4.14069 1.58961
1280 1 1 18.2293 13.4627 4.6366 0.741497
1895 1 1 3.48128 16.7403 2.72549 0.119194
7863 1 1 0.319593 14.054 6.15731 2.59721
800 1 1 5.81212 15.5171 3.63002 0.407132
7011 1 1 17.998 14.4034 3.5311 2.17114
1178 1 1 6.03717 11.3587 4.2364 1.25439
1163 1 1 1.51355 15.5834 4.93791 0.305456
1448 1 1 4.62859 13.177 3.52097 0.558351
699 1 1 7.80569 12.6291 3.19171 1.49798
163 1 1 8.44712 12.8249 2.17171 1.51736
1226 1 1 8.61963 11.3761 3.19999 1.76451
823 1 1 8.84433 11.2121 1.74905 3.96919
1504 1 1 9.02176 11.4075 6.42061 0.615969
7138 1 1 14.5703 11.6792 1.28174 0.263885
1799 1 1 13.2418 13.219 4.46289 0.142822
991 1 1 17.0049 11.6634 2.23049 4.1634
303 1 1 17.2164 12.6125 2.67053 2.42847
302 1 1 15.1637 14.3623 6.26737 0.569612
6563 1 1 17.6781 11.3554 4.43917 2.24929
1079 1 1 18.4269 12.4326 2.75262 1.03556
918 1 1 0.036079 14.1168 1.94311 0.732729
7754 1 1 17.9924 14.4871 4.44884 0.346458
642 1 1 1.70633 16.1028 3.43188 0.521552
7051 1 1 4.34816 15.2017 3.95821 2.95893
7515 1 1 0.239399 15.1827 6.23384 1.9384
6531 1 1 4.62725 16.6064 6.20351 2.75395
6536 1 1 3.14921 14.1222 6.68319 3.75325
7210 1 1 3.76976 11.4841 4.93157 0.253762
7139 1 1 7.43775 13.5336 3.76375 1.21684
221 1 1 8.82118 15.4574 4.23232 0.903471
1848 1 1 11.2178 11.5681 3.62324 0.320264
284 1 1 9.45798 17.5888 2.619 1.03266
64 1 1 10.2177 11.2567 2.20318 0.349079
1100 1 1 11.5644 11.3882 4.62746 0.557912
7705 1 1 10.6598 13.2977 2.12041 0.788127
854 1 1 17.2195 12.5453 4.53189 4.41232