ITEM: TIMESTEP
3300
ITEM: NUMBER OF ATOMS
8000
ITEM: BOX BOUNDS pp pp pp
0.0000000000000000e+00 1.8820720577620570e+01
0.0000000000000000e+00 1.8820720577620570e+01
0.0000000000000000e+00 3.7641441155241139e+01
ITEM: ATOMS id mass type x y z v_temp
7951 1 1 0.299774 0.24829 1.73315 1.97251
328 1 1 0.989973 0.911228 0.480651 2.59995
1739 1 1 2.53939 0.713437 35.8482 2.7296
1573 1 1 3.36051 0.475096 37.4493 1.77497
1198 1 1 3.43853 1.85139 2.29105 0.962116
7166 1 1 5.96025 1.36466 37.5171 4.27645
7300 1 1 5.19174 18.6289 0.523112 0.0638688
1328 1 1 7.27388 1.27371 1.38489 2.16087
1446 1 1 8.38293 0.77648 0.966966 0.997708
1140 1 1 9.42618 1.00229 0.236128 2.36745
56 1 1 7.06434 2.52783 0.575575 0.555014
6855 1 1 8.84582 18.7416 37.3089 0.899754
7149 1 1 11.0563 0.842998 37.5287 1.05229
887 1 1 10.455 18.7087 37.185 5.88892
7745 1 1 11.4554 0.579635 36.2804 1.45777
801 1 1 12.6256 0.41589 36.3066 5.89945
1479 1 1 15.4671 18.4073 0.976652 1.99873
7301 1 1 15.9578 1.1787 0.0114438 1.61703
1511 1 1 16.5696 0.743002 0.951985 4.22604
6839 1 1 17.0277 0.0540629 36.2319 1.20994
1672 1 1 18.1188 0.697531 2.15513 0.831907
7088 1 1 18.5259 18.5884 0.129876 0.291153
1380 1 1 18.5272 1.10492 0.132209 2.14682
7930 1 1 1.81238 1.86273 37.2304 1.43436
508 1 1 18.3852 3.27536 37.6224 0.724899
2026 1 1 2.73227 0.997029 2.42066 0.376793
1279 1 1 4.60665 2.4403 0.402711 0.699343
6494 1 1 5.00183 1.99894 36.9422 0.802163
7604 1 1 5.51963 2.05702 1.4535 0.461648
1266 1 1 6.60326 1.87861 2.29763 0.211078
324 1 1 5.1629 3.25856 0.466298 1.30104
7751 1 1 6.15053 2.95697 1.31935 1.58492
7564 1 1 8.56966 3.86945 0.559064 1.70665
7653 1 1 8.42079 2.43405 36.845 0.328753
6866 1 1 7.06836 2.56716 1.63056 0.734771
775 1 1 10.5661 1.7155 37.2175 2.94119
7283 1 1 9.84608 4.47632 36.9195 3.7059
3337 1 1 11.3143 0.541753 2.09857 1.74509
446 1 1 11.6619 2.37158 1.23535 0.318292
350 1 1 14.2146 1.49069 0.456895 3.04026
6850 1 1 12.8874 3.19717 36.9626 1.21531
1183 1 1 14.5409 2.24708 1.35493 1.78045
1020 1 1 14.0081 3.37703 0.421189 2.2467
6845 1 1 17.1685 1.59413 1.19486 0.290035
7202 1 1 18.4632 2.13311 1.35225 1.73081
1045 1 1 1.17629 4.44687 1.54336 1.37802
1713 1 1 2.00234 2.66741 0.902891 2.52472
6006 1 1 3.70028 1.75871 0.795008 0.701148
7697 1 1 2.60771 3.4474 0.35131 1.54572
406 1 1 3.7359 3.03283 0.562219 1.60036
7612 1 1 6.00002 4.72455 0.753457 1.282
1333 1 1 9.13032 2.59488 0.0611629 0.215727
7625 1 1 7.788 4.22455 1.29474 0.772466
437 1 1 11.4492 1.75086 0.0895419 0.729575
7032 1 1 11.4834 4.22041 0.687333 2.82547
7392 1 1 15.1412 4.03316 37.3638 0.921464
5355 1 1 18.1808 4.58282 3.0815 3.13849
853 1 1 15.2827 4.64796 0.96408 0.234165
7595 1 1 17.6725 4.4892 2.23437 0.752442
1037 1 1 0.23608 3.05657 1.0621 1.28363
6423 1 1 17.2417 3.63158 1.25373 1.15955
6875 1 1 0.0201569 5.66977 36.941 2.81146
6987 1 1 2.71047 5.55484 0.874048 0.0896486
366 1 1 1.54926 4.73902 36.7905 2.37765
7718 1 1 3.17756 4.3485 1.21556 1.24254
6083 1 1 4.47938 4.01119 1.18906 1.412
1310 1 1 3.55044 4.78538 2.16619 1.64809
1723 1 1 4.47634 5.28625 0.0502218 0.674674
135 1 1 5.43025 6.34984 36.5116 0.644408
5799 1 1 7.89969 5.81825 1.06561 0.144203
217 1 1 6.89736 5.15737 1.80282 2.14466
2244 1 1 9.95918 3.79914 0.523311 0.925285
6581 1 1 8.12652 4.10409 2.45643 2.37271
7450 1 1 11.9333 4.87295 37.0485 2.42443
7155 1 1 12.828 3.72049 1.78066 0.257338
6551 1 1 10.6798 2.56483 0.343375 3.9166
7544 1 1 14.0322 4.86597 0.324129 0.763344
1377 1 1 14.8472 5.63643 0.705681 2.27607
223 1 1 17.0073 6.08999 0.901544 0.458845
7273 1 1 16.0463 5.81833 0.753748 1.01064
877 1 1 0.116606 4.07938 36.4921 3.68511
645 1 1 17.556 6.17056 37.5271 3.29924
1427 1 1 1.16298 5.60354 0.452245 0.780574
1562 1 1 2.62865 6.67381 1.55394 1.15494
573 1 1 0.816284 6.33147 37.0875 3.65272
7956 1 1 3.4851 6.04763 1.39155 0.614016
6152 1 1 3.44633 4.92611 37.4344 2.26175
1224 1 1 7.99996 7.38175 0.734915 0.646379
1381 1 1 8.4042 6.61489 1.74492 4.21218
354 1 1 8.70856 5.06229 0.965653 9.71044
6996 1 1 8.96622 5.6047 1.7701 2.47591
7408 1 1 10.8547 5.46853 36.879 3.71174
7466 1 1 10.3113 6.15636 1.49785 1.53829
973 1 1 12.6431 5.83916 1.02591 0.751105
6949 1 1 10.8834 6.22947 37.5474 1.51633
1664 1 1 13.0142 7.7501 0.929543 0.823542
6997 1 1 13.1127 7.13069 37.6059 0.431169
6470 1 1 11.4058 5.71698 0.617147 0.656207
675 1 1 12.3818 6.84337 1.5816 1.49144
6044 1 1 12.9872 5.53073 1.96382 1.12553
140 1 1 14.2908 7.17898 1.74062 1.98394
276 1 1 14.6051 6.848 0.11652 2.43493
1537 1 1 15.5195 6.79309 1.21658 2.48301
371 1 1 16.6291 5.8239 37.1917 2.22934
7659 1 1 16.8675 5.98618 2.77687 0.832723
3092 1 1 16.2775 6.70685 0.167027 0.133
1757 1 1 17.9794 6.11162 1.08386 1.44938
7397 1 1 18.5033 6.66306 37.4692 3.42958
1360 1 1 0.768691 8.1826 1.27408 1.85289
7942 1 1 1.96863 7.692 0.267951 1.41782
86 1 1 2.8115 8.40585 1.07758 1.39724
6578 1 1 3.28428 8.70521 2.20413 4.76074
6767 1 1 2.90873 8.26163 37.636 1.69501
1415 1 1 4.45568 7.48883 0.174639 4.66427
6874 1 1 8.4884 8.2745 0.133338 0.715877
6933 1 1 9.42413 8.70557 0.959205 0.724809
7573 1 1 10.2197 7.47459 0.0997908 2.12095
5690 1 1 11.9558 8.82068 1.83049 1.92463
610 1 1 11.4703 7.49038 1.03693 0.22894
5857 1 1 17.7941 9.18281 1.56568 0.272
1399 1 1 0.388691 9.53407 1.02031 1.92056
5649 1 1 1.28689 8.50859 2.11538 1.76114
7026 1 1 2.66459 10.5094 1.33802 0.35812
158 1 1 3.79966 9.76558 2.86286 1.65914
930 1 1 4.73344 10.1744 0.0367422 1.09524
7065 1 1 5.73121 10.4094 1.52639 1.01601
7731 1 1 6.18613 10.5184 0.154143 0.737392
429 1 1 7.3998 8.54676 37.2367 2.30751
7002 1 1 7.67827 9.4139 0.565024 1.17874
154 1 1 7.50545 10.0791 1.74861 2.66391
1296 1 1 10.4039 9.07143 37.5527 1.78363
7943 1 1 13.2807 9.93818 0.614341 0.306757
232 1 1 15.5578 9.90051 36.5043 0.456971
1193 1 1 13.9643 7.7399 37.5409 3.23676
7021 1 1 15.2962 9.89043 1.39602 4.70273
1120 1 1 14.4075 10.5444 0.773191 1.66533
7548 1 1 16.0551 9.2819 1.09366 1.60028
7800 1 1 16.5955 9.14111 0.082188 1.77472
3472 1 1 16.9709 8.76828 1.37301 1.14413
219 1 1 17.9124 9.36782 36.9134 1.79303
7967 1 1 2.79238 10.2258 2.65232 1.52524
1349 1 1 1.60375 10.3063 1.61176 1.94362
7729 1 1 1.20046 11.9109 1.99273 1.3754
7047 1 1 1.92706 12.0731 37.2015 0.282469
48 1 1 4.75905 10.6454 4.14394 4.09457
228 1 1 3.5055 10.1467 0.524586 1.37677
1547 1 1 6.11543 10.4676 3.50062 4.35059
1790 1 1 7.95245 10.4651 0.852311 1.91944
238 1 1 8.04539 11.9681 0.99264 2.46885
678 1 1 8.55361 11.3348 37.1681 0.542613
1385 1 1 9.60155 11.6106 1.07715 1.23111
64 1 1 7.68642 12.154 37.6281 7.98572
229 1 1 9.65886 11.5303 36.2652 0.75196
969 1 1 16.0552 11.0603 2.16252 2.31487
1997 1 1 13.8103 12.2843 0.32281 1.1522
7512 1 1 14.6681 11.6222 0.440604 3.1508
627 1 1 15.6299 11.3327 0.648374 0.561327
736 1 1 16.6122 10.0291 36.9913 3.07876
7805 1 1 17.2007 11.9653 37.448 4.71118
549 1 1 2.321 14.1737 2.58795 1.00385
1971 1 1 2.10768 12.6253 1.28056 0.961765
7621 1 1 2.62152 12.6817 2.27762 0.199612
452 1 1 3.24864 11.3929 1.02037 0.457987
1046 1 1 6.92785 13.6872 1.11231 0.648589
23 1 1 4.92928 13.4631 36.6941 2.9033
6253 1 1 6.83985 11.8204 0.699736 1.15629
6723 1 1 11.3693 13.0456 0.612515 1.20004
423 1 1 14.3714 12.8468 0.950663 0.647389
296 1 1 16.8653 12.4032 1.02137 0.0943289
7282 1 1 14.5599 13.5092 37.2883 1.45305
962 1 1 18.3055 11.3764 0.571679 2.65513
6183 1 1 1.39249 13.7354 36.571 1.21849
6411 1 1 18.3104 12.279 -0.00649222 2.09209
7060 1 1 3.08844 13.5055 36.8593 0.232482
6898 1 1 4.1195 12.8262 0.557177 2.77287
6379 1 1 4.58657 14.1306 0.444518 0.171297
7035 1 1 6.88834 14.3161 0.289864 3.00067
7457 1 1 6.70407 12.7996 37.4814 1.24027
378 1 1 9.61941 14.2356 1.75995 1.28201
5866 1 1 8.23813 14.5182 0.0914727 0.0180885
7620 1 1 13.5118 13.9517 0.620858 1.1166
708 1 1 11.5774 11.7857 1.03534 0.155653
7955 1 1 13.2438 13.4399 2.59648 0.537721
1567 1 1 17.0283 13.2205 37.5977 0.506123
7338 1 1 18.3589 13.6987 1.36997 1.80663
336 1 1 17.1597 14.5295 37.631 1.27624
7261 1 1 0.283812 14.7885 1.1457 6.62676
918 1 1 0.492013 15.9396 0.424336 0.122171
7845 1 1 2.55494 14.9836 37.2612 3.21101
7405 1 1 4.75075 15.2838 0.836653 0.449274
1995 1 1 6.75779 15.125 0.949702 1.84956
1561 1 1 5.41977 15.5317 0.0398254 0.908578
37 1 1 7.88908 14.7922 1.47952 1.59355
6399 1 1 8.80555 14.5712 1.10446 0.355707
961 1 1 7.81653 16.2335 0.6685 1.18327
7950 1 1 10.3768 15.3597 1.75155 1.93555
1144 1 1 9.88207 15.6844 36.2686 1.85497
511 1 1 10.6847 15.3635 0.650615 1.9953
6032 1 1 13.1372 15.9459 36.4418 0.444406
7163 1 1 13.3838 16.0528 37.4269 0.348545
820 1 1 12.4629 14.9322 0.565051 1.49314
629 1 1 16.0058 14.8636 0.394694 2.05295
1529 1 1 13.5759 15.3237 2.19407 2.58252
375 1 1 17.4194 13.6827 1.00575 5.17045
7757 1 1 16.3325 15.8723 37.3951 2.11046
7672 1 1 18.3406 15.4174 36.944 3.4025
1170 1 1 17.889 14.7792 1.25986 3.1401
757 1 1 0.14773 16.2855 36.7102 0.768096
2476 1 1 2.06335 16.8397 0.982369 0.471293
1984 1 1 0.22631 17.3514 0.765934 0.13473
1136 1 1 3.0543 16.7071 0.753882 0.305807
7248 1 1 4.30411 17.0566 1.06846 2.2351
7530 1 1 5.52996 16.9507 0.93848 0.341432
569 1 1 5.81471 15.6088 1.00195 2.79596
7899 1 1 8.15614 17.1628 -0.0438483 4.04472
7736 1 1 8.78864 15.7391 0.705386 1.44351
6673 1 1 9.11814 16.9133 0.406294 0.9693
1103 1 1 11.6408 15.5925 0.112317 1.41804
7680 1 1 13.7727 17.354 37.3135 2.24393
2106 1 1 11.1893 14.7069 1.25954 2.51619
472 1 1 13.6793 18.1175 1.41956 0.450585
2109 1 1 16.1854 17.7644 1.79669 1.55857
579 1 1 17.1906 16.8555 0.24337 1.10003
1042 1 1 18.3652 15.9455 0.100116 2.12081
2662 1 1 0.904253 17.9663 36.6952 1.19469
668 1 1 18.7495 17.8503 1.53962 1.77281
1469 1 1 3.40914 17.8859 0.493367 2.03845
7773 1 1 4.67689 0.13623 1.44985 5.18075
175 1 1 5.79374 18.3203 1.46662 0.344348
895 1 1 9.11994 18.0485 0.560519 1.89011
1993 1 1 10.1973 17.2072 0.621163 3.67533
7753 1 1 10.0451 17.5903 37.3181 2.18198
7568 1 1 13.1548 17.926 0.349358 1.29835
1308 1 1 14.3231 18.1977 36.4377 0.719825
788 1 1 15.2783 18.0022 0.0309562 1.56749
7529 1 1 16.608 18.0565 0.586117 1.07344
1315 1 1 17.5279 17.8336 37.5329 0.394334
7434 1 1 17.289 18.0337 2.09244 1.0804
910 1 1 0.800755 18.4984 2.81966 2.51799
206 1 1 1.04579 1.00131 2.21721 1.5155
608 1 1 3.39287 0.639294 3.12759 1.98899
692 1 1 4.22199 1.67353 4.11458 2.04735
7818 1 1 7.59541 0.247069 1.70888 1.36528
6079 1 1 6.61336 0.542917 0.654655 1.54731
55 1 1 9.67684 0.0550491 1.1105 1.25445
2103 1 1 8.19047 1.97055 1.266 2.02165
343 1 1 9.3189 18.054 2.10312 3.23289
515 1 1 12.4205 0.220867 0.128408 0.807761
94 1 1 10.471 18.2489 1.77636 0.736631
6659 1 1 10.5789 0.584479 0.871155 0.266246
2348 1 1 12.6106 0.461638 2.1765 0.0840147
409 1 1 13.1556 1.23726 1.15231 1.57832
7340 1 1 12.0644 18.4702 1.69599 1.84702
281 1 1 13.1146 18.7954 0.993981 0.248883
822 1 1 14.1495 1.01571 2.61995 2.01628
430 1 1 15.0448 2.27185 2.55748 0.984764
1928 1 1 16.0218 1.31145 1.91031 0.443191
807 1 1 17.9295 0.728866 3.58043 3.40615
351 1 1 17.575 18.7579 0.647445 0.407789
1607 1 1 17.4264 18.4644 3.02843 2.62181
149 1 1 1.06383 2.4497 1.60729 0.618505
965 1 1 0.0571208 1.49105 2.07971 0.393596
2044 1 1 3.39376 3.00724 1.67799 1.1275
1654 1 1 2.2819 2.63462 2.65375 1.5423
104 1 1 3.37433 2.74031 2.73302 1.4401
915 1 1 5.7291 3.19692 2.34674 0.492659
6040 1 1 7.54411 1.45541 2.77261 1.47349
454 1 1 9.31586 2.38794 1.95933 0.614915
726 1 1 10.329 2.70135 1.39744 0.406716
1270 1 1 11.8519 1.72784 2.58009 1.52487
6241 1 1 13.6518 2.76532 1.67778 1.8945
828 1 1 12.7551 2.15147 1.65704 4.27716
7440 1 1 16.5161 3.08216 0.531668 3.22129
7028 1 1 13.2969 2.00274 2.5035 2.01203
552 1 1 15.8694 4.06263 2.30799 3.05766
1591 1 1 18.1084 2.11644 2.38555 1.61702
914 1 1 0.230149 2.67314 4.18424 3.99124
7633 1 1 17.0672 2.21423 2.11989 1.52081
383 1 1 0.676449 3.22219 3.30179 1.63598
643 1 1 1.01089 3.44679 2.29745 1.63172
115 1 1 0.554981 4.97057 3.16211 0.708329
7660 1 1 1.77908 3.52805 1.6845 2.27735
489 1 1 3.86963 3.77487 2.32223 3.2497
1322 1 1 4.77535 2.5123 1.983 0.0986607
7879 1 1 5.07876 5.50733 2.11886 1.35794
1237 1 1 5.41651 3.88199 1.50503 0.704458
1850 1 1 5.80242 4.6045 2.12987 0.70397
188 1 1 5.98333 5.33937 2.96667 3.60994
7861 1 1 6.90318 4.35649 2.85376 1.21872
6922 1 1 8.13949 3.19163 1.70822 0.405759
580 1 1 6.53394 3.88279 1.53276 2.22943
183 1 1 9.06912 3.70247 2.70717 1.63375
593 1 1 8.98857 3.87673 1.48323 0.400564
7468 1 1 11.6736 3.29475 2.018 0.626028
2139 1 1 13.3565 4.6286 2.36274 0.418671
1213 1 1 16.6922 3.79959 2.98534 2.08015
1203 1 1 15.9874 5.11227 2.17995 1.0645
982 1 1 18.449 4.10172 0.877964 0.918757
1409 1 1 1.12213 5.46862 2.27334 0.914924
7938 1 1 2.6216 4.25209 36.389 1.57288
1338 1 1 1.96787 6.62525 4.18181 1.65591
936 1 1 2.59071 4.06082 2.03222 1.00646
6605 1 1 4.78647 5.80977 0.784316 0.138103
2318 1 1 6.2823 5.14777 3.97612 1.87463
6216 1 1 4.91908 6.92554 2.11187 2.67321
125 1 1 8.02639 4.98274 1.94134 1.29516
61 1 1 10.4701 3.76234 4.23907 1.75476
6566 1 1 7.70168 5.74705 2.61694 0.341514
164 1 1 10.9136 4.00852 1.70173 0.667379
7348 1 1 11.7907 5.53995 4.32832 0.922037
285 1 1 11.9295 4.1448 2.65762 0.73998
5812 1 1 12.1234 5.65601 2.67689 1.43342
651 1 1 17.4351 5.38259 1.64369 0.826883
7358 1 1 17.7367 4.83549 0.816011 0.40417
602 1 1 16.6395 5.0451 1.11687 2.04684
1715 1 1 18.7803 5.81676 3.10631 4.39183
137 1 1 18.472 5.38587 0.380547 2.45482
314 1 1 18.5794 4.9145 2.07544 0.585856
72 1 1 1.74342 6.30622 2.08596 1.48821
802 1 1 0.889267 5.95386 3.81308 0.211768
6561 1 1 0.598571 5.80777 1.29894 1.14484
305 1 1 0.841587 7.4212 4.15813 2.80589
7944 1 1 2.17549 7.41694 2.64289 1.763
7803 1 1 2.12569 4.88164 1.49908 0.302919
1864 1 1 2.86014 6.56709 2.46755 0.944443
6971 1 1 6.30362 6.46842 3.78102 2.25113
190 1 1 3.73004 6.84063 37.5212 1.38105
7387 1 1 8.00415 6.86155 3.33335 2.59352
1781 1 1 8.13081 4.73004 3.7092 1.29786
7094 1 1 8.94479 4.58559 2.31251 4.61632
564 1 1 10.2637 4.76995 1.67656 0.988812
1450 1 1 11.0461 6.68099 2.3324 3.55747
7719 1 1 10.1606 5.63571 2.52446 0.181999
550 1 1 13.3902 7.80545 2.39709 0.397142
108 1 1 12.0623 4.79077 1.81382 4.36805
271 1 1 14.6631 5.9288 2.15796 0.277655
486 1 1 14.7619 6.76076 3.38989 0.260727
956 1 1 15.5322 5.64697 3.15671 0.124811
235 1 1 16.2879 5.87105 3.90363 0.661796
6719 1 1 0.132757 6.14566 2.16348 1.91839
6196 1 1 0.920926 7.74209 2.95983 1.16103
1596 1 1 2.14316 9.00367 2.46096 1.09975
7308 1 1 3.1141 7.59122 2.16158 0.415451
7854 1 1 4.01945 8.66088 3.48846 4.69724
1917 1 1 4.37092 8.95218 2.4371 3.74432
7326 1 1 4.85339 8.18407 1.64051 0.538555
1681 1 1 5.22866 9.31169 1.83123 1.22723
7721 1 1 5.92699 8.52673 2.20231 6.78256
7482 1 1 6.84754 8.0884 0.534009 4.68233
568 1 1 8.87401 9.0613 2.63295 1.14735
1273 1 1 7.60376 8.66977 1.2164 0.304475
7643 1 1 9.68163 9.7697 2.91845 3.00055
277 1 1 9.52975 6.44931 2.3543 1.47894
825 1 1 11.2565 8.05001 2.97805 1.13221
543 1 1 14.6949 9.87285 2.37182 4.23324
7945 1 1 14.3461 9.6902 0.0082623 1.39178
790 1 1 14.9083 7.46731 2.44257 0.0496295
6159 1 1 17.845 6.52744 3.04821 0.725442
913 1 1 16.8323 7.27702 2.7435 1.12074
669 1 1 16.1843 7.74966 1.4641 1.21392
79 1 1 15.2171 8.96466 2.1998 2.74305
926 1 1 18.4987 8.40473 1.71334 1.07375
205 1 1 0.264822 7.14003 2.11785 2.65937
7717 1 1 0.211026 9.83577 3.06091 0.73537
773 1 1 2.47375 11.4288 3.4664 2.23712
2504 1 1 2.41745 9.27985 3.54461 0.769313
8000 1 1 4.96114 9.2572 3.6821 4.90982
1863 1 1 6.30574 9.25102 1.22229 0.646731
357 1 1 4.53115 9.88444 1.1973 1.61559
529 1 1 6.40743 9.36212 2.34547 2.37617
615 1 1 6.92214 10.0401 2.93266 1.34104
7335 1 1 8.68724 10.0573 2.00399 0.677489
1001 1 1 9.47202 9.34788 1.86469 0.86471
2814 1 1 9.32502 9.65783 37.3519 0.737018
7004 1 1 12.3372 9.74404 1.58924 2.36029
738 1 1 11.7452 9.85731 2.5299 0.159883
1906 1 1 12.0308 11.25 2.2867 2.72719
374 1 1 12.277 10.3059 3.70312 0.333057
7913 1 1 14.5686 8.68514 0.748946 1.31945
596 1 1 15.6786 10.9253 3.20424 0.948437
7432 1 1 16.8863 10.0485 3.19798 0.439657
7488 1 1 16.7625 10.2907 0.771392 0.63327
6675 1 1 17.5878 7.95455 2.59023 0.245357
7966 1 1 0.131622 8.60471 2.92977 0.00766879
634 1 1 0.134849 11.4924 1.49911 2.53434
7056 1 1 3.25446 10.6203 3.53586 0.635023
6232 1 1 3.84257 10.4853 2.02169 3.12296
146 1 1 3.33382 11.6154 4.14391 0.185916
6584 1 1 6.30705 10.9265 2.62173 1.27471
1226 1 1 7.68057 11.1486 2.24969 2.67118
823 1 1 9.05032 9.88865 0.748494 2.03845
955 1 1 10.9251 7.6411 1.90214 1.3255
699 1 1 7.7439 12.295 2.0682 1.19478
342 1 1 10.7354 12.277 0.932431 0.0248218
574 1 1 9.3814 10.7324 37.2915 1.62063
386 1 1 11.4991 12.5999 1.96508 1.52663
818 1 1 14.5494 10.9319 2.19914 0.939012
2453 1 1 13.6645 11.1683 3.03052 0.827129
2353 1 1 16.6429 12.1554 2.02032 2.09459
600 1 1 16.5258 11.2308 1.13423 3.30883
7888 1 1 15.6737 10.3273 0.420357 2.50519
1079 1 1 17.3794 11.1793 2.22546 5.9907
750 1 1 0.634778 10.6712 1.95278 1.34664
7128 1 1 17.5561 10.8243 1.17294 1.55477
7851 1 1 18.646 11.1045 2.80826 0.100894
1528 1 1 2.05816 11.8779 2.6108 0.929808
1006 1 1 4.5202 12.0856 2.77446 3.08701
704 1 1 5.48512 12.723 2.3504 1.49808
7755 1 1 4.65932 13.3547 1.69066 2.82848
563 1 1 5.15701 10.9113 2.25141 4.09991
163 1 1 6.61556 12.0289 1.9496 1.22114
7704 1 1 8.59715 13.7767 1.72827 0.76844
416 1 1 10.7169 11.677 2.11247 0.617827
7266 1 1 10.9616 13.5799 1.51226 0.782012
976 1 1 12.6672 11.7865 2.89746 1.60031
1189 1 1 14.2049 11.9362 1.45578 1.85895
7138 1 1 15.5069 12.3709 1.35349 0.242999
7999 1 1 14.9674 13.4432 1.68608 2.88497
1143 1 1 15.371 12.6157 3.62696 0.694942
303 1 1 16.8616 13.2316 4.31308 0.860653
991 1 1 17.9284 12.1564 1.59978 1.96927
7772 1 1 0.48155 13.7871 1.75946 0.712572
559 1 1 1.55504 12.8747 3.08851 2.5006
4804 1 1 2.66155 13.5993 3.41689 0.864475
6464 1 1 2.62644 13.822 0.81496 1.22155
1448 1 1 4.89573 14.2881 2.40171 1.60725
7217 1 1 4.31802 15.086 3.5332 0.971582
7489 1 1 5.72582 13.1148 1.32441 0.177333
1210 1 1 7.59511 13.7584 2.00729 0.520822
7961 1 1 7.31686 13.409 4.05149 0.900296
769 1 1 7.62851 13.6342 0.146186 3.10752
1432 1 1 11.0968 13.7012 3.13355 0.80788
2347 1 1 7.85984 13.4561 1.09087 1.4809
7705 1 1 11.9646 14.5042 2.74315 3.06159
6872 1 1 12.7694 14.3061 1.44869 3.61115
209 1 1 14.2859 14.6891 1.73643 0.28557
1406 1 1 16.8219 14.08 2.64428 0.0532684
1077 1 1 15.3957 14.6238 1.65696 1.94517
255 1 1 17.3756 13.2368 2.08819 2.79267
1910 1 1 1.30936 14.124 0.585709 1.98631
1999 1 1 18.4584 15.9689 1.27971 0.920522
7404 1 1 3.8713 15.3845 2.01275 0.609234
1729 1 1 6.60705 17.3773 1.34588 0.851242
687 1 1 6.58745 14.1012 1.94277 0.925014
239 1 1 7.4847 15.3946 2.46977 1.80995
89 1 1 9.47617 16.0577 2.67129 1.32333
640 1 1 10.4876 14.2754 2.35582 2.69371
2373 1 1 12.3337 15.2151 2.14275 1.42459
1439 1 1 12.6162 15.9833 2.99446 1.85061
7052 1 1 14.3752 15.7258 0.859932 0.0629828
7444 1 1 14.197 14.0217 3.45659 1.57103
7545 1 1 13.7499 14.8267 37.0529 0.0171656
234 1 1 1.3776 13.7613 2.45268 0.696751
6824 1 1 18.3622 16.2816 2.41847 1.52428
1590 1 1 18.2662 14.3822 0.42487 6.53594
954 1 1 1.06435 16.8707 2.85371 1.07075
1282 1 1 2.1172 16.3423 3.04056 2.05986
785 1 1 2.38949 14.6599 1.70474 2.06422
1634 1 1 2.47126 17.1704 2.58548 3.08547
1245 1 1 3.58103 17.2212 1.98448 2.95438
7957 1 1 5.18436 16.5072 1.75073 0.399901
7303 1 1 5.61467 16.7102 3.40414 3.59774
1337 1 1 6.16654 15.9991 2.35654 0.507038
381 1 1 10.1248 16.941 3.50942 0.409676
1453 1 1 10.3525 16.9591 2.60824 0.532662
2224 1 1 11.2286 17.4496 1.03977 1.20255
841 1 1 9.83451 16.172 0.603962 0.392345
6582 1 1 10.6743 16.5189 1.37392 0.410059
809 1 1 12.4697 17.089 0.889809 0.491801
948 1 1 11.614 15.6852 1.47885 2.88482
1186 1 1 12.8497 15.6683 1.33563 2.74753
1986 1 1 14.7741 15.6589 2.00726 3.17651
7497 1 1 15.2872 13.5393 3.3356 0.147908
500 1 1 14.0416 16.7884 1.60944 0.247534
7977 1 1 18.3525 17.0358 37.5935 1.20411
7116 1 1 0.384016 16.809 1.86927 2.68816
7947 1 1 18.2772 18.4193 2.30754 1.31848
1509 1 1 3.42436 18.6866 1.22777 0.0828706
332 1 1 3.97289 18.5146 2.16981 2.8531
215 1 1 3.18753 18.2752 4.47443 2.3005
7613 1 1 5.71236 0.486547 1.3612 5.74654
504 1 1 5.01625 17.8108 1.17852 1.6096
96 1 1 4.71796 0.0251658 3.34969 0.499094
763 1 1 8.0778 17.9319 1.54357 1.66008
1675 1 1 5.87023 0.124534 2.4871 0.0717346
1416 1 1 6.92297 18.4597 1.99559 3.35516
1196 1 1 9.26141 17.1025 1.82788 0.635602
898 1 1 10.1647 18.1363 2.83516 1.57747
7452 1 1 11.5959 17.0414 2.0511 0.221094
1339 1 1 11.1586 18.5819 2.7373 0.407189
980 1 1 11.0561 17.5515 -0.00693913 1.3035
1588 1 1 11.3698 17.3051 3.37787 2.24553
1589 1 1 12.6465 18.1801 3.05561 2.74668
505 1 1 12.9045 17.7553 1.88138 0.566818
7246 1 1 12.1565 16.9851 2.87147 2.5392
653 1 1 13.5328 18.4055 2.51705 2.05723
1269 1 1 15.5677 17.8074 3.23237 0.487872
1129 1 1 15.5523 15.9591 0.720685 1.24265
7744 1 1 16.9986 0.136981 1.81563 5.32795
1367 1 1 17.9074 17.2163 1.7236 0.818225
109 1 1 0.716125 1.95382 2.77304 1.77637
845 1 1 1.59376 1.35305 3.6578 0.395818
2089 1 1 5.35095 18.7788 5.27734 2.49557
547 1 1 4.34874 1.05366 2.59118 2.31616
7197 1 1 5.53795 1.35584 4.4276 0.70007
6777 1 1 5.43545 1.14377 2.47154 0.635938
7982 1 1 7.83933 0.537468 3.82069 1.54739
171 1 1 6.3055 1.19538 3.75435 1.87746
1734 1 1 8.57546 1.37942 2.06008 0.0640167
1466 1 1 9.33148 1.03686 1.59625 1.7197
2204 1 1 9.95465 0.512603 3.36014 0.742372
7821 1 1 9.61403 0.229873 2.32568 1.55286
7539 1 1 11.4798 18.6522 0.081523 2.58859
2867 1 1 13.8137 1.07601 4.09581 0.0644375
7422 1 1 11.5454 0.349195 4.54677 1.29801
867 1 1 13.4005 18.7382 4.40361 0.172371
1007 1 1 14.6894 0.946067 3.45927 1.77612
772 1 1 15.906 1.93356 4.93289 1.85424
126 1 1 15.4593 0.479836 2.48128 0.91764
194 1 1 0.329134 1.05593 4.01437 0.841948
3242 1 1 16.7984 0.52912 5.52923 3.05216
7937 1 1 1.7219 2.12329 5.0652 0.107511
633 1 1 4.41033 2.00711 5.10599 1.07637
1738 1 1 2.50507 1.78307 3.40288 0.579487
2030 1 1 2.56101 1.90212 4.37638 1.25594
1365 1 1 4.344 2.21047 3.06002 2.91387
1309 1 1 5.38202 0.88096 3.40988 0.540021
1488 1 1 6.62521 2.12033 4.3217 1.11875
1543 1 1 7.63081 2.55341 2.47391 1.65977
1661 1 1 10.6065 1.68042 2.7844 1.42638
7535 1 1 8.37773 1.1035 3.13269 2.78527
189 1 1 8.22908 1.0616 4.59649 0.839202
2177 1 1 9.79455 3.79358 2.036 0.641933
544 1 1 11.1324 1.78656 5.05092 0.348815
1044 1 1 10.3415 1.53533 1.58793 3.11316
742 1 1 12.8136 2.2577 4.2213 1.45098
3071 1 1 13.9767 2.89876 3.59101 0.652636
7830 1 1 16.1707 2.59318 3.74321 0.3253
1354 1 1 15.9588 1.73872 2.788 1.10728
7758 1 1 15.9022 3.64991 4.48917 0.800524
7423 1 1 16.2505 0.552506 3.15508 3.23671
874 1 1 18.6479 2.736 2.98178 0.515233
509 1 1 1.62205 5.40374 3.11674 4.46171
966 1 1 18.3599 5.27376 4.15017 1.95148
2033 1 1 2.98505 4.25023 4.14358 2.01618
2917 1 1 1.79947 4.31037 2.64086 0.805644
2559 1 1 2.75114 3.64511 3.00469 0.8912
7785 1 1 5.32116 2.00414 3.58855 2.48251
1348 1 1 6.35804 2.05183 3.27214 1.83554
7215 1 1 5.01076 3.75293 2.89681 2.72527
656 1 1 5.11367 3.37957 3.85491 0.542017
7924 1 1 5.94271 2.97618 3.69244 0.118489
661 1 1 7.02522 3.22093 2.93703 1.46704
1098 1 1 7.35553 2.95418 4.93029 0.34502
6477 1 1 8.07587 3.44792 3.2646 0.416943
1302 1 1 7.46923 4.02298 5.70398 2.19489
418 1 1 8.89811 3.44806 4.04138 0.34777
6060 1 1 11.4948 3.51779 3.39993 4.20482
6136 1 1 11.7623 4.37446 4.51404 0.0212319
387 1 1 12.6069 4.86846 3.28483 1.9491
7185 1 1 13.2022 4.00837 3.18691 4.72206
636 1 1 13.5867 3.05689 2.70621 0.713092
1539 1 1 14.8426 3.19113 2.16153 0.57697
1422 1 1 14.5234 3.80818 3.02581 0.0681051
1041 1 1 17.1919 1.22703 2.59711 3.0829
2202 1 1 18.6513 3.68448 1.77889 0.483144
7284 1 1 18.0082 5.94455 4.72719 3.19115
1374 1 1 0.653231 4.6277 4.3789 1.8308
7841 1 1 3.48376 5.92922 3.47395 1.74832
6026 1 1 2.92937 4.78446 3.0949 0.911638
3 1 1 3.56884 5.97273 2.48226 0.0823976
82 1 1 7.17562 4.35966 3.83554 0.317312
985 1 1 4.11045 5.21543 2.87526 0.567698
7123 1 1 6.06693 3.81897 3.03883 5.71986
533 1 1 5.86362 5.33688 5.27506 3.52623
214 1 1 6.80588 5.52868 4.80568 0.672555
7663 1 1 9.73386 3.67794 4.86713 1.18291
1291 1 1 9.94963 4.69222 2.61841 0.212268
7644 1 1 11.9406 6.64784 4.14063 0.354994
588 1 1 12.8394 4.38341 4.18725 1.27895
3586 1 1 14.7706 4.94608 3.35837 0.656275
7725 1 1 13.6674 5.71967 3.21879 0.197818
4139 1 1 17.3022 4.85701 3.74142 0.710482
928 1 1 0.993781 6.4106 2.79494 3.69515
7646 1 1 17.1338 5.85389 5.18413 1.3718
7992 1 1 0.0488705 6.51419 4.2993 0.784003
1002 1 1 4.09368 5.61267 4.29966 0.275188
6804 1 1 0.814892 5.68645 5.03303 0.926089
2162 1 1 1.43931 7.07779 5.04578 1.34137
153 1 1 4.58647 6.25501 3.57483 4.3225
5747 1 1 6.05067 7.72787 3.66752 4.44607
2608 1 1 6.38577 7.47799 2.33135 0.734226
117 1 1 7.34156 6.53776 4.29204 3.68504
2311 1 1 5.07474 6.92896 5.5726 1.15921
7683 1 1 6.63792 7.31642 4.54254 0.181968
2589 1 1 7.94654 5.69737 4.09929 0.721678
553 1 1 8.96618 6.75609 4.56107 0.311956
7782 1 1 10.5679 5.98787 4.95296 0.468707
1784 1 1 10.8801 7.24846 3.56863 0.778459
1460 1 1 11.1066 5.81793 3.65191 3.338
1927 1 1 12.3984 5.93908 3.60193 0.882059
591 1 1 13.8332 6.53962 4.28074 1.87045
240 1 1 14.684 5.7716 4.28531 3.26407
102 1 1 15.5171 6.56427 4.09968 0.723021
2798 1 1 17.2604 7.10807 4.52173 2.0404
1728 1 1 0.0720229 7.46646 3.33312 0.736593
107 1 1 0.367512 8.369 4.22044 0.755675
667 1 1 17.2213 8.98447 3.30022 2.52797
7242 1 1 1.77877 8.02149 3.50307 0.70497
7641 1 1 0.486563 8.95724 5.45456 1.41908
925 1 1 2.49963 8.1066 4.55714 0.561329
1717 1 1 3.97367 6.87331 2.48389 0.43089
5817 1 1 5.38572 8.45144 3.05044 1.44297
1217 1 1 7.25998 8.31576 3.10992 2.84187
404 1 1 5.13835 9.01676 6.10608 0.238357
1194 1 1 7.87202 9.49586 2.74739 2.45243
604 1 1 9.6358 7.31235 3.92795 0.945098
345 1 1 7.7556 8.33496 4.11524 2.34594
7538 1 1 10.6515 8.8097 3.08732 0.991693
7322 1 1 10.164 7.04939 2.848 3.35713
216 1 1 9.80343 7.96917 2.40925 0.378949
1069 1 1 12.3995 7.23367 2.79348 1.05154
557 1 1 10.5985 8.37935 4.07575 0.151391
1833 1 1 12.5958 9.07547 2.80073 0.316638
7739 1 1 12.8615 8.7218 4.55676 4.9154
6619 1 1 13.5406 6.42126 2.43382 1.14512
7756 1 1 13.5127 7.87384 5.0716 0.2205
7983 1 1 16.9125 6.63986 3.61334 2.16252
957 1 1 14.5099 6.20372 5.41894 0.931263
622 1 1 16.0973 7.67564 3.94335 0.959284
7795 1 1 15.9255 9.75371 3.92911 2.97819
2151 1 1 17.1876 7.6925 3.71967 0.790389
230 1 1 0.0119017 9.37383 4.15248 0.209582
765 1 1 1.77742 10.7115 3.98515 2.53795
626 1 1 4.38419 8.59896 4.57352 0.0670285
478 1 1 5.3071 9.71533 2.76777 0.977008
842 1 1 5.81584 8.57922 4.07024 4.49888
7472 1 1 6.09054 9.4091 3.53534 2.51837
983 1 1 6.79834 8.79867 4.06246 1.69198
1105 1 1 10.5329 9.26429 2.1013 1.37154
3068 1 1 11.9145 9.49088 4.21745 1.40278
3406 1 1 11.4548 10.4713 1.60633 1.89217
1802 1 1 13.9565 7.51814 3.75395 1.33374
2578 1 1 14.1533 9.32901 4.71672 1.763
1250 1 1 15.1008 7.52774 4.00331 1.93257
7470 1 1 14.7756 10.8542 5.07159 0.22332
1184 1 1 15.2771 9.16445 5.12902 3.1354
1677 1 1 16.2663 8.86691 2.68618 0.400113
1287 1 1 18.2152 10.0826 3.70421 2.65804
1082 1 1 1.55987 10.064 5.38394 0.768214
1709 1 1 16.9213 8.61381 4.31391 1.66568
369 1 1 1.83547 10.7758 2.46197 1.29371
203 1 1 1.12034 11.9027 4.19879 2.72328
7541 1 1 1.41148 12.5148 5.06775 4.42808
834 1 1 2.38171 11.7713 4.4351 1.05072
134 1 1 4.41201 11.9589 3.92871 0.0492392
6842 1 1 4.4842 10.9955 2.98891 2.38829
6975 1 1 5.45416 11.4095 3.93463 0.770661
970 1 1 6.42528 12.7918 3.47043 3.42686
1475 1 1 7.28119 9.80281 4.11196 4.12678
95 1 1 7.81262 10.6917 3.45405 0.761922
1968 1 1 8.37884 9.72372 3.6252 0.647756
6693 1 1 10.088 11.3493 2.89465 1.00648
7798 1 1 11.4454 10.8151 3.15544 1.51575
7531 1 1 11.0914 11.9731 3.25796 0.0496534
7156 1 1 11.7543 10.3547 4.68942 1.90343
1848 1 1 11.4739 11.6725 4.83108 0.562823
38 1 1 14.5169 10.4695 3.23096 0.803944
1072 1 1 15.3528 12.1471 2.62255 2.29
2638 1 1 16.4425 11.6847 2.96895 0.346038
1438 1 1 16.7704 10.0246 4.88651 0.334767
6563 1 1 0.266422 10.7803 4.02216 2.64605
1836 1 1 17.7106 12.1379 2.69204 1.2584
1793 1 1 18.5621 9.93122 1.78636 1.33822
259 1 1 0.997288 11.9507 2.97453 0.433162
178 1 1 3.14603 11.9302 2.91432 0.92107
840 1 1 4.22337 12.7625 4.8277 0.697869
1264 1 1 5.17587 12.543 3.4389 0.31199
487 1 1 8.5232 12.6166 4.57199 0.935878
7139 1 1 7.22414 11.9642 3.10515 0.393802
630 1 1 8.50374 11.8297 3.12262 2.09669
3108 1 1 12.3127 13.2537 1.63823 1.3784
7834 1 1 12.0286 11.913 3.89234 0.156579
1904 1 1 13.0995 11.5833 4.88533 2.69728
1799 1 1 13.0498 12.6618 5.19884 1.56017
451 1 1 14.4363 13.1008 2.61978 2.69759
1187 1 1 16.3551 13.2048 5.27641 1.9384
7089 1 1 18.7588 12.3061 3.2355 2.05693
7670 1 1 17.5531 13.1718 3.2174 1.86633
5605 1 1 1.57752 14.0916 3.44475 1.32314
6665 1 1 2.45092 12.5024 3.78301 2.45038
245 1 1 3.60437 12.8508 3.90833 1.6425
7811 1 1 3.35619 13.9413 4.20398 1.80621
481 1 1 6.80311 13.0253 2.21226 1.08588
844 1 1 6.14317 14.7085 3.81535 0.509645
885 1 1 8.00557 14.09 4.157 1.48162
53 1 1 7.95916 13.3859 3.20967 0.311756
221 1 1 8.82939 13.4973 3.79242 0.817843
1295 1 1 8.9685 10.8698 3.74266 1.10245
734 1 1 8.96989 12.8234 5.95157 0.262831
7893 1 1 9.54732 14.0118 2.84894 1.91208
7040 1 1 11.999 13.0291 2.9948 2.51301
7551 1 1 12.0386 13.4146 4.86863 1.87863
7180 1 1 12.5779 12.6872 4.04487 0.479119
1200 1 1 13.136 14.3346 2.86025 0.432491
888 1 1 13.9791 13.8257 4.85693 5.03634
1676 1 1 18.5047 13.4547 4.04989 2.04924
854 1 1 17.0237 14.3343 4.11735 0.588723
6762 1 1 18.2676 14.314 2.85028 3.10507
1340 1 1 18.4959 14.5386 4.61089 0.0518529
7826 1 1 18.7087 15.0851 2.24501 0.449792
642 1 1 1.81248 15.2401 2.52914 2.12746
7840 1 1 3.26616 14.6879 3.03586 1.44145
7051 1 1 2.91652 16.438 4.07176 2.5223
480 1 1 3.47504 15.6952 3.36933 1.49527
1505 1 1 4.20143 14.6738 4.52439 0.77346
1128 1 1 5.50218 15.7559 3.25715 3.11147
7174 1 1 5.68885 14.9132 2.40552 0.488335
800 1 1 7.55344 14.7288 3.54474 0.709191
1930 1 1 6.93568 15.573 4.26458 0.173352
1940 1 1 8.83394 12.7426 2.79931 2.08864
6946 1 1 9.98449 15.9022 3.63525 0.230377
7678 1 1 8.89472 14.7484 3.95813 0.0966962
7856 1 1 9.63954 13.9738 4.53046 2.94987
3078 1 1 12.3596 15.4069 4.31123 0.138003
433 1 1 10.3537 14.7936 3.35539 1.55801
1167 1 1 12.1725 13.7981 3.95739 1.66875