ITEM: TIMESTEP
800
ITEM: NUMBER OF ATOMS
8000
ITEM: BOX BOUNDS pp pp pp
0.0000000000000000e+00 1.8820720577620570e+01
0.0000000000000000e+00 1.8820720577620570e+01
0.0000000000000000e+00 3.7641441155241139e+01
ITEM: ATOMS id mass type x y z v_temp
1634 1 1 1.58944 1.0497 2.44242 2.7726
1142 1 1 17.2659 2.24306 36.8286 2.67365
7604 1 1 1.75643 16.6318 0.604793 3.37331
7210 1 1 4.48992 18.1909 3.71721 0.45081
318 1 1 2.00783 0.0199974 3.08337 0.55614
287 1 1 6.20989 17.6981 0.323769 0.359682
7226 1 1 4.32928 2.72677 0.983872 0.664455
6076 1 1 5.5463 2.12282 0.99417 0.0754983
7503 1 1 6.74106 1.89539 0.502249 5.0312
6017 1 1 7.68279 1.32749 0.0750416 2.92287
7535 1 1 8.4589 0.797586 37.3623 3.93296
2020 1 1 9.46974 0.0120802 37.6265 0.942892
696 1 1 11.9662 0.172931 1.86736 1.46748
383 1 1 14.1979 0.483153 3.64162 0.18577
640 1 1 13.3326 1.82592 2.70091 0.960045
7930 1 1 17.9753 18.3593 2.28721 4.43175
554 1 1 16.2241 17.7302 34.4234 0.674557
7471 1 1 16.2075 3.53849 34.0761 0.699434
1198 1 1 1.62451 0.736446 0.981243 1.01791
576 1 1 17.1126 1.62118 1.21923 4.48312
115 1 1 17.7019 3.15526 37.3097 0.870307
816 1 1 1.69345 3.04737 2.71255 1.82475
6995 1 1 3.10748 4.40082 1.68489 5.09281
2126 1 1 6.19299 1.86419 2.31379 0.817349
172 1 1 6.83162 1.22275 37.1577 1.99857
5756 1 1 9.01355 2.45488 36.4459 0.549253
6659 1 1 8.65847 3.86173 2.72721 1.52896
1206 1 1 8.74154 0.548489 2.09838 1.4123
7660 1 1 5.26078 3.47069 37.572 2.09601
2305 1 1 10.3186 2.35158 37.1203 1.16512
7725 1 1 11.3494 3.36308 2.95089 1.6454
6691 1 1 12.6821 1.16928 36.5493 0.0952826
1308 1 1 12.3289 2.62237 2.25966 3.07241
1269 1 1 16.5371 18.682 0.78939 0.578746
6873 1 1 12.257 2.05257 35.8354 1.50724
7830 1 1 14.0568 1.43032 3.3801 2.19985
7423 1 1 13.3863 1.01929 5.50131 1.91383
1344 1 1 16.8383 2.3855 1.88854 0.749309
7998 1 1 17.6329 5.03954 1.8785 1.55702
18 1 1 0.542963 1.77765 0.479499 1.1525
47 1 1 0.707637 3.63914 0.192218 1.70979
366 1 1 0.125773 5.17168 37.5714 1.28671
1481 1 1 3.77068 17.8244 1.00951 1.94242
7456 1 1 2.76216 6.14582 3.10363 0.648706
7697 1 1 4.663 3.70457 36.541 2.91715
402 1 1 3.57814 4.66504 36.238 0.835928
879 1 1 5.20848 3.39582 1.73464 0.726727
7667 1 1 5.92294 4.56283 36.7873 0.32544
464 1 1 8.52463 3.53218 37.1383 1.38669
543 1 1 10.1898 4.72877 0.761565 0.290764
2348 1 1 9.75728 5.64445 1.78834 1.33209
7010 1 1 14.0712 3.20547 3.40189 0.361034
73 1 1 10.0525 3.70473 0.0565385 2.03002
151 1 1 15.5388 4.48003 36.5989 1.61616
1315 1 1 15.425 1.66625 0.281804 0.8601
6648 1 1 0.925816 2.96215 1.51384 2.09341
762 1 1 15.9092 7.37989 1.11478 2.05104
791 1 1 18.5555 4.60975 36.1607 2.22313
7980 1 1 18.7763 4.31432 2.85863 2.06398
802 1 1 0.557724 5.03117 1.07125 0.205375
7879 1 1 3.95118 4.65277 0.944641 1.20081
7631 1 1 5.0264 4.27494 1.09791 2.94623
548 1 1 4.66712 5.94382 2.53565 0.533609
217 1 1 6.99785 4.00669 0.364646 0.378045
1076 1 1 8.24437 5.01333 2.06185 0.455846
945 1 1 6.56934 5.92859 37.5087 0.206925
697 1 1 10.2999 8.22835 36.1066 1.98956
1330 1 1 11.5616 8.01104 0.385688 0.922491
1380 1 1 14.8675 2.50598 36.7472 0.299456
7911 1 1 14.1682 3.52818 37.2851 0.208772
2160 1 1 16.0366 6.96335 35.9288 0.494008
7937 1 1 18.6658 4.01615 0.769584 2.46237
1713 1 1 1.35625 3.73085 36.4818 5.09078
924 1 1 0.431012 11.3763 37.0725 1.2107
34 1 1 17.1678 4.53424 35.8591 0.531088
6762 1 1 1.01216 8.05557 1.09196 0.454467
1158 1 1 4.16276 2.96247 37.5494 1.17713
997 1 1 5.41587 6.29875 1.75269 1.12513
645 1 1 4.43523 6.50013 37.1998 0.761664
930 1 1 5.2011 8.10427 0.85213 0.578597
568 1 1 7.87968 8.15042 0.804305 1.00685
7748 1 1 9.40853 8.16375 1.90509 0.574332
7921 1 1 6.92866 6.5673 2.94916 3.33553
5854 1 1 7.76249 6.19673 36.3264 1.44223
6669 1 1 13.2917 7.8128 1.58846 1.18212
6497 1 1 11.6113 8.59236 1.46571 2.71414
7420 1 1 10.634 5.92711 36.8395 2.1661
214 1 1 11.2721 6.98322 1.4129 1.12783
721 1 1 9.87378 9.84519 0.835759 0.34499
181 1 1 13.015 7.25518 0.449249 4.22628
193 1 1 11.2687 5.70043 0.764241 1.65422
7972 1 1 13.84 6.78021 0.902091 1.75921
1359 1 1 14.8302 6.39394 37.3517 0.609251
7641 1 1 17.6175 6.91943 1.61461 5.73583
1318 1 1 0.57756 7.84654 2.11252 1.0686
6533 1 1 0.286327 7.62467 3.44007 0.516895
7351 1 1 1.99079 8.9121 36.2967 0.772698
7657 1 1 1.24435 12.1165 35.5858 0.400646
925 1 1 4.51479 7.92392 36.8854 1.43337
6235 1 1 6.61485 8.26417 0.805301 1.12279
331 1 1 4.47553 7.16744 36.089 0.838011
7958 1 1 6.87341 7.24512 37.2381 1.24616
178 1 1 4.93993 10.3971 0.356036 0.427283
7335 1 1 9.0134 8.99813 2.64234 1.56806
5813 1 1 5.98917 9.06448 0.615934 1.57333
6538 1 1 10.1571 7.27409 2.17196 0.392538
461 1 1 10.49 11.4709 35.7596 3.70699
7348 1 1 12.3391 5.6302 1.08876 1.71323
6705 1 1 18.0878 7.43963 0.0509037 4.37248
498 1 1 11.989 7.49588 3.43917 1.52361
7851 1 1 16.5475 8.36052 2.72546 0.364927
7800 1 1 17.4187 9.07171 2.20577 4.10879
230 1 1 0.849717 6.73633 2.35871 2.35691
7734 1 1 0.0453312 11.7053 36.0038 0.792734
1637 1 1 18.5119 8.88074 3.56749 1.50164
6987 1 1 5.56121 10.3063 2.50793 0.379128
7791 1 1 4.55276 7.80864 2.86955 1.6434
5753 1 1 6.58828 9.81969 37.4001 2.91188
6566 1 1 8.63463 9.22912 0.605548 2.57544
1790 1 1 6.6264 11.0349 2.25879 0.218852
3250 1 1 7.86587 10.4037 0.106257 2.95817
1038 1 1 9.39025 7.83196 36.0971 0.848282
570 1 1 11.2456 9.26397 0.468382 1.9889
7943 1 1 10.862 9.15744 2.49276 0.86275
2177 1 1 10.2661 8.37756 1.56564 0.867601
86 1 1 13.5595 9.30135 0.376631 1.74369
7979 1 1 13.5847 10.0151 4.95802 0.782721
79 1 1 17.1905 7.72236 0.269591 2.02771
6241 1 1 16.5626 4.94159 1.34492 1.08183
648 1 1 12.6143 8.58823 2.54112 1.49883
736 1 1 0.388222 9.32676 1.61739 3.01338
1036 1 1 17.6341 9.59496 0.249245 0.917432
884 1 1 16.9308 9.2205 1.16962 3.01351
340 1 1 2.93688 13.1701 1.09344 2.28021
1350 1 1 0.742246 12.4102 37.073 1.33457
6578 1 1 3.53909 8.39775 37.2736 0.963898
1172 1 1 4.54418 11.192 1.22115 2.4168
639 1 1 5.54804 11.5878 37.5622 2.86105
7891 1 1 8.89524 15.0187 0.965379 3.91386
7002 1 1 9.5399 9.89715 2.59023 0.609142
1542 1 1 8.35133 10.4129 2.39278 0.917886
6536 1 1 8.45039 12.5183 1.92035 1.05396
7156 1 1 12.5858 10.1028 1.63556 1.04338
7452 1 1 11.7203 14.2854 37.6373 0.616108
7635 1 1 14.2824 10.9535 37.2699 2.63418
379 1 1 15.2483 11.4232 37.5994 0.953194
1074 1 1 16.3221 10.6059 37.3958 0.592214
7836 1 1 0.541875 13.5835 36.8347 1.40026
7863 1 1 2.96352 14.7133 2.86998 1.4642
7446 1 1 17.1881 11.2957 37.5997 0.631812
6646 1 1 3.38456 12.808 2.13924 0.502647
8000 1 1 4.50197 13.3868 1.60203 0.733744
7056 1 1 4.33217 14.6238 0.914376 1.06411
7621 1 1 5.4738 11.676 1.22663 0.162755
6252 1 1 6.66827 11.8674 0.232108 0.535926
532 1 1 7.78051 9.22851 36.6167 1.59256
7065 1 1 8.12277 11.8158 37.479 1.34829
7457 1 1 8.55296 14.271 1.66695 1.49395
1178 1 1 10.6485 13.0387 1.94087 1.0491
7704 1 1 7.76945 11.5015 2.74335 4.31236
6699 1 1 13.0546 11.8111 0.647139 0.245989
1976 1 1 12.822 11.8046 36.6085 0.266832
57 1 1 15.5722 9.63482 36.2954 0.132179
234 1 1 16.9378 14.934 0.356839 2.26725
7189 1 1 17.6673 11.3514 35.9867 0.889534
7847 1 1 2.13811 13.3906 1.64217 0.245833
6243 1 1 4.45285 15.7491 0.443124 2.3623
7051 1 1 3.34075 13.9687 3.44342 1.473
7610 1 1 5.25783 14.7115 1.85549 2.5409
1081 1 1 9.28235 13.8879 0.251167 1.42421
1144 1 1 7.90883 13.5675 1.15314 1.37804
6898 1 1 7.28383 14.1734 34.9802 2.62655
67 1 1 8.03134 11.9945 4.03406 1.25418
38 1 1 10.1276 13.3361 0.91322 0.204774
377 1 1 12.5786 14.912 1.02753 0.0538991
501 1 1 14.3277 11.8305 0.606631 0.446959
7826 1 1 17.7378 13.9017 0.690669 2.90331
7483 1 1 16.0658 12.7133 1.6301 0.841448
7052 1 1 17.5144 15.473 2.38468 1.75318
579 1 1 18.2146 13.0176 1.47313 0.323026
634 1 1 17.9852 11.9027 0.371517 0.823578
962 1 1 1.46252 13.1268 3.58964 0.227309
704 1 1 4.9943 14.6079 36.8616 0.673798
1529 1 1 2.09153 15.201 1.20752 0.491931
6321 1 1 5.19987 0.207542 1.73682 8.56197
203 1 1 4.00821 13.3741 2.81461 3.0053
154 1 1 6.18527 12.2435 37.0087 1.51542
734 1 1 7.8307 12.8083 37.1488 3.31775
6379 1 1 6.4423 14.8848 0.556376 2.21714
1908 1 1 9.67373 14.388 1.57078 0.48374
7569 1 1 8.65416 16.6425 0.477817 0.648294
227 1 1 9.74343 15.6989 1.89192 1.28431
1134 1 1 10.7493 16.0593 36.9741 0.162433
22 1 1 13.3525 16.6111 37.6277 3.81719
1143 1 1 15.0021 13.1406 2.54472 1.6287
1474 1 1 17.0404 14.7625 36.5263 0.250735
7548 1 1 15.9978 14.4732 0.624698 2.68917
668 1 1 17.2836 15.9904 36.3305 1.71828
559 1 1 2.22108 15.3326 37.165 0.972518
2134 1 1 0.648768 18.2089 36.7024 1.12065
311 1 1 0.890773 14.4135 37.1467 1.23814
7934 1 1 2.41656 17.9737 2.23311 1.44417
439 1 1 2.40391 16.3743 3.27578 1.1325
7767 1 1 5.5867 15.8699 34.9737 1.39158
399 1 1 4.50439 16.3314 1.27214 1.95096
7214 1 1 9.20899 14.3161 34.3916 7.14691
7180 1 1 7.7178 12.5652 34.8629 3.74277
6835 1 1 6.32976 18.5726 1.15466 0.139074
7206 1 1 7.13055 17.1886 1.27741 0.145852
7616 1 1 8.50658 0.379561 36.3784 2.29356
841 1 1 11.1271 17.2462 1.33237 1.93852
7736 1 1 10.3387 14.6562 37.2105 2.64696
7779 1 1 11.352 17.4381 35.6882 1.64273
2343 1 1 12.125 16.871 36.2686 2.30977
1916 1 1 14.5556 15.0588 37.369 1.71311
6913 1 1 15.4867 13.7135 1.30687 0.0942241
2038 1 1 15.9105 16.7093 0.489656 2.92034
7855 1 1 1.16988 14.0122 1.2802 2.05988
1042 1 1 16.8311 15.8341 1.08665 1.20331
7999 1 1 17.8002 16.3764 37.3261 0.941606
1569 1 1 0.6782 16.0584 37.3602 1.74492
7265 1 1 2.57265 1.06715 0.77426 2.52722
332 1 1 2.69618 17.7088 1.05483 1.2267
6777 1 1 1.9156 17.7506 0.0499325 0.769123
6866 1 1 5.84725 17.5013 2.24252 2.38104
7267 1 1 6.52205 0.0896224 37.5973 1.91019
1729 1 1 4.07584 17.6783 2.16494 0.629952
43 1 1 6.61857 15.6614 0.0225747 0.634572
7581 1 1 6.50171 16.7611 37.1772 0.941643
7678 1 1 6.69764 0.275203 3.49587 0.398425
1895 1 1 4.85828 15.726 2.15857 2.74821
708 1 1 8.66399 18.4617 1.45058 2.30149
7961 1 1 9.23391 17.5228 2.89915 2.24032
7705 1 1 11.5099 15.7594 2.85713 1.55726
356 1 1 13.6438 17.0985 0.958309 3.10021
6636 1 1 14.3921 17.598 0.590335 0.415174
343 1 1 12.9959 16.6018 2.88186 1.25701
6723 1 1 13.6885 15.4251 1.69005 0.806458
7088 1 1 18.0496 1.89682 0.840082 2.30691
3499 1 1 16.7952 0.118406 37.279 0.644709
7261 1 1 18.4539 17.4878 1.8228 2.53424
489 1 1 2.03298 0.33787 4.20519 1.51854
1168 1 1 5.65492 1.19022 3.77158 1.0082
445 1 1 2.92708 16.1135 2.31183 0.376339
1930 1 1 3.15131 0.122172 2.91116 0.63849
1257 1 1 5.38379 0.0180718 4.67557 0.370581
497 1 1 6.78602 1.46268 3.9732 2.89437
89 1 1 8.96922 18.3104 4.58058 1.46523
1208 1 1 7.22991 0.992705 2.93089 0.530355
7785 1 1 6.63842 18.2217 2.47425 1.10541
505 1 1 11.6525 2.21153 1.46905 0.172691
7745 1 1 12.5647 1.38354 2.23468 1.17238
1339 1 1 9.55983 0.572379 1.22683 2.62463
677 1 1 13.5694 0.671675 2.10864 1.30234
700 1 1 12.158 1.1404 3.27477 0.933008
31 1 1 18.6731 3.91017 1.80101 3.76068
7478 1 1 17.0817 18.2282 1.79507 1.97204
787 1 1 17.0911 1.73752 2.7694 1.88147
351 1 1 17.5938 0.404347 1.80315 0.0738624
7647 1 1 18.6498 0.0236629 0.0602907 0.622194
1718 1 1 2.93662 0.579054 3.94389 1.85544
1766 1 1 2.14994 18.049 3.92332 2.27581
547 1 1 4.47431 1.74281 0.278833 0.392113
936 1 1 4.27184 2.49549 1.995 0.23157
2026 1 1 4.50614 2.61878 4.33635 5.85269
569 1 1 5.28279 0.550781 37.2861 0.545914
566 1 1 8.14521 1.35731 2.63568 4.62105
633 1 1 6.46709 0.392772 2.32281 0.227661
886 1 1 7.84229 1.70687 3.65109 0.152813
593 1 1 11.2781 2.27949 0.345559 0.574999
173 1 1 9.60683 18.6112 2.04327 3.08152
7332 1 1 8.99603 3.781 1.68387 0.672381
21 1 1 10.1611 2.12023 0.5657 0.691396
7155 1 1 12.8972 3.45555 3.29355 0.339187
7669 1 1 14.3909 2.19702 2.00859 2.9604
1020 1 1 14.0001 2.75948 4.32599 2.4961
859 1 1 16.3532 17.9572 2.52663 1.8041
7549 1 1 16.6182 1.65556 4.9457 0.39309
1348 1 1 0.542425 1.90519 2.29993 0.743831
7440 1 1 18.0701 1.4839 2.10548 0.471817
7903 1 1 1.6468 2.10392 1.82008 4.02018
7795 1 1 1.32738 7.86156 3.29583 4.64238
7284 1 1 4.39177 4.31408 3.44949 2.95486
6767 1 1 5.82327 6.10468 3.03412 3.4244
835 1 1 6.4643 3.19131 37.3229 3.076
2824 1 1 3.86828 5.15755 1.92982 0.628635
7718 1 1 5.94169 3.13892 0.87476 0.531556
7653 1 1 7.06143 3.22189 1.28246 0.896401
7215 1 1 6.73901 5.25885 1.93525 0.38447
623 1 1 7.07605 4.1896 2.27081 0.641541
1416 1 1 7.5177 0.379056 2.22211 1.66368
7666 1 1 9.66939 3.08798 1.24354 0.30331
492 1 1 10.6375 6.16359 1.68678 1.23011
7387 1 1 9.10697 4.32965 37.507 0.638212
6541 1 1 13.4114 4.38372 2.43835 1.28726
7246 1 1 16.0057 1.7726 3.13512 2.2777
7938 1 1 18.3558 2.00073 3.02497 1.44277
651 1 1 17.0206 2.98794 0.971337 1.08512
7844 1 1 15.767 5.63109 36.0784 0.81312
6975 1 1 1.65499 6.55548 1.81111 2.28765
5621 1 1 1.56616 6.41383 4.25062 3.28202
6396 1 1 2.88949 5.2704 2.71819 2.42264
7659 1 1 3.06143 6.07634 1.49143 0.96019
1237 1 1 4.39388 3.53131 2.59476 3.57865
15 1 1 3.2074 5.28045 3.75275 1.45181
7251 1 1 3.78688 3.58642 1.67808 1.11247
7924 1 1 4.43227 5.956 4.19223 5.90801
661 1 1 6.08006 4.37405 3.86168 0.234057
7532 1 1 5.97346 5.06539 2.82791 4.1204
585 1 1 7.86006 4.34957 3.47077 0.474377
934 1 1 9.7227 4.09621 2.48099 1.11665
6703 1 1 10.9398 5.16155 1.78892 3.82097
1369 1 1 10.126 6.65589 1.04787 2.63641
91 1 1 13.2389 6.16426 1.98541 0.960313
528 1 1 8.0591 2.46446 2.95701 1.09095
985 1 1 11.1393 6.74262 2.75122 2.21747
387 1 1 15.0905 3.13705 3.42442 2.95432
1473 1 1 16.2193 3.7229 0.973772 3.93794
271 1 1 13.4964 4.28668 1.16222 0.0891792
511 1 1 15.6863 1.42605 1.48125 0.779744
966 1 1 17.8086 4.5818 0.127225 1.37541
914 1 1 14.896 2.90524 1.39624 5.3811
7432 1 1 18.3486 4.92115 1.11015 0.15961
7966 1 1 3.54313 8.74062 2.1142 0.54386
206 1 1 15.7161 2.49815 1.02032 0.753155
7967 1 1 1.85786 7.77616 37.1708 3.20215
442 1 1 3.12224 8.58395 1.03089 0.706256
7944 1 1 2.68179 8.16033 0.173157 2.12925
7803 1 1 5.8633 7.65849 1.90143 3.63209
1177 1 1 7.61001 6.90326 3.63888 0.577548
6136 1 1 7.88526 5.91742 2.46862 1.16388
7663 1 1 7.22644 6.75975 0.925725 1.50201
7138 1 1 12.3141 9.5539 3.98919 0.0203097
7904 1 1 8.11434 5.36243 3.40409 1.50797
1051 1 1 9.26175 5.22357 3.12163 0.176962
7422 1 1 12.9152 4.66453 3.20173 0.548042
469 1 1 12.4436 6.34165 2.70995 1.56476
7611 1 1 13.7676 5.88623 4.61952 1.86183
188 1 1 11.625 7.84546 2.27171 1.03002
1329 1 1 12.316 4.61446 1.13317 0.49732
5812 1 1 14.9533 7.02618 3.15834 0.472525
35 1 1 14.8124 6.02932 35.7715 0.441863
1377 1 1 15.8753 3.18992 2.32995 2.4465
2197 1 1 15.8443 6.74186 2.91079 0.0527736
7544 1 1 15.507 6.39289 4.87906 0.364116
223 1 1 14.9448 6.47965 1.07586 2.28138
72 1 1 18.7582 6.03204 1.62412 1.56647
75 1 1 17.9384 4.1205 3.86139 1.20952
2320 1 1 13.6935 8.06945 4.72813 0.481669
5817 1 1 4.15862 7.95716 1.80401 1.06342
7322 1 1 8.75795 7.74545 2.75378 1.75175
626 1 1 5.65087 8.44198 2.80758 0.966355
7738 1 1 5.42878 6.98335 2.61893 0.373416
1648 1 1 8.95353 6.96151 1.81333 1.48331
571 1 1 10.0947 6.62763 4.6896 8.14729
5690 1 1 11.1207 7.19466 3.9115 1.56039
2244 1 1 11.6866 10.3474 0.904921 0.469096
122 1 1 9.35185 5.69283 4.02156 1.43797
1441 1 1 14.1175 6.51564 5.49505 1.94973
276 1 1 13.4127 5.78149 0.941982 0.733779
108 1 1 16.3718 8.34173 0.28965 0.751655
186 1 1 15.99 11.2338 3.11226 2.03374
1314 1 1 18.7848 9.92675 0.00656281 0.17795
1005 1 1 4.02404 7.56584 0.461103 0.840719
7326 1 1 5.02116 10.2349 1.42391 2.21605
1681 1 1 4.71488 11.3399 2.76777 0.356592
6874 1 1 7.46419 8.05784 37.1911 2.3557
1301 1 1 4.68974 8.71259 2.38754 2.88378
10 1 1 7.58542 11.0277 0.959376 3.43884
7459 1 1 7.71205 8.99581 3.14657 2.08023
765 1 1 6.95354 12.0667 2.69749 0.2286
1475 1 1 8.01934 9.99192 3.53098 3.95618
672 1 1 13.0563 6.02827 3.89848 3.51628
6896 1 1 9.76021 11.0053 1.36418 1.1272
7538 1 1 9.3014 11.0083 2.93481 1.10322
1193 1 1 14.0117 6.43278 2.96309 2.62919
7185 1 1 14.4009 5.45435 1.93723 0.264413
1906 1 1 13.2286 8.94216 3.54895 1.29634
1426 1 1 12.2274 8.52632 5.9592 5.12458
1478 1 1 14.4517 8.60267 5.24423 1.52461
6561 1 1 17.3698 9.63008 3.241 2.42211
84 1 1 15.5035 8.93866 3.36699 1.24502
1093 1 1 2.21743 10.5293 0.463196 0.488721
300 1 1 2.31771 11.9426 2.96507 1.91363
877 1 1 17.1513 10.2408 0.987803 1.16627
970 1 1 6.22327 11.2488 3.42931 0.107385
7482 1 1 3.86193 10.8029 1.82908 1.52928
7805 1 1 3.71877 11.8624 1.84896 5.99628
1211 1 1 7.21001 10.6394 2.99066 0.439476
290 1 1 5.92834 12.5103 2.65346 0.602637
7643 1 1 6.28007 8.69709 1.93403 1.22102
691 1 1 8.58085 6.77249 2.9161 0.269827
955 1 1 7.19535 12.9036 1.70084 1.08295
1224 1 1 9.23869 9.45611 1.65704 1.56981
232 1 1 10.3278 11.7691 1.94442 3.60507
7983 1 1 16.0092 7.6757 2.20711 0.459021
296 1 1 14.7243 10.6684 2.431 3.22985
610 1 1 11.8119 9.10208 3.02894 2.36689
2017 1 1 15.2663 6.26212 2.02117 3.11553
712 1 1 18.5298 9.80075 1.03485 1.03163
7470 1 1 17.6359 10.351 1.9075 3.2992
146 1 1 0.248127 10.7196 1.28907 0.181635
2662 1 1 17.1894 12.7964 0.718648 0.345201
1234 1 1 17.5843 11.4629 2.10971 2.35077
7474 1 1 3.91105 12.5063 3.48002 1.67613
967 1 1 2.66318 11.0724 1.64748 0.31985
7060 1 1 1.41837 11.0679 1.13305 1.12207
369 1 1 2.57286 10.8198 3.46045 1.41681
7249 1 1 2.1074 13.2164 4.46496 0.427528
325 1 1 8.03327 13.5149 3.98262 2.34696
773 1 1 4.54889 12.4443 2.1807 0.832914
453 1 1 5.82204 9.90203 5.40442 2.26056
627 1 1 10.6139 12.63 4.31686 2.04012
7004 1 1 11.8105 12.0009 3.64361 0.61034
1103 1 1 13.1258 14.6617 2.06876 0.783588
738 1 1 12.9209 9.62028 2.71497 0.828769
286 1 1 11.1595 12.8066 0.222836 1.14067
574 1 1 13.2428 10.5656 0.925731 3.80568
1107 1 1 10.9743 9.6697 1.45872 1.43022
7512 1 1 14.9418 10.8952 36.5592 1.45649
973 1 1 15.0986 9.52059 2.56016 0.586507
7772 1 1 1.21005 12.7127 2.16624 0.482074
163 1 1 5.08576 12.2731 3.2387 0.697003
1486 1 1 4.01355 15.6072 4.9292 0.403365
7085 1 1 4.91536 13.7222 3.1516 3.35546
584 1 1 5.9917 12.5241 0.780179 3.4566
255 1 1 7.66745 12.5398 0.782438 3.77859
688 1 1 7.86984 13.5487 6.36893 0.981865
1128 1 1 7.47867 14.3745 4.30943 1.37671
7139 1 1 7.60962 16.2166 3.11142 2.77009
1912 1 1 8.96619 13.3386 3.49759 1.93816
1139 1 1 7.90353 17.416 1.91951 2.8163
7545 1 1 12.5436 12.5399 2.57331 1.66379
423 1 1 14.0604 11.8138 1.61405 1.43595
6686 1 1 11.2381 13.6937 1.40146 0.404008
7834 1 1 12.6365 13.5466 3.93591 0.149963
6824 1 1 13.94 12.7514 2.03342 0.662406
7040 1 1 12.0663 15.2975 0.195611 1.9063
6599 1 1 16.5227 13.7161 1.33244 1.35165
389 1 1 15.5515 14.3222 2.78435 3.04144
375 1 1 17.6182 14.3582 1.72728 1.10262
7867 1 1 17.3056 12.4794 1.65124 2.0066
1567 1 1 18.2576 10.8927 0.63562 3.7532
2358 1 1 18.263 14.4049 2.86562 0.022189
1445 1 1 18.6578 15.1236 3.34408 4.1461
7555 1 1 0.102073 13.9531 1.39031 2.94879
757 1 1 1.25784 14.8044 1.92013 1.26125
1485 1 1 3.70117 15.1193 1.59802 0.776477
815 1 1 7.99749 14.8052 0.595969 1.86175
7926 1 1 6.03976 15.8038 1.56949 0.565687
749 1 1 8.1781 16.7807 37.0327 2.47955
6851 1 1 10.0989 14.4389 2.55089 0.546741
872 1 1 7.71922 17.4754 0.35498 2.60365
7700 1 1 6.1006 17.0342 4.62575 1.88539
7489 1 1 10.6064 15.5485 2.5173 1.23812
256 1 1 8.56414 16.0673 4.27573 0.806124
976 1 1 10.2615 12.8891 37.319 0.591891
381 1 1 11.1771 14.7835 2.04428 4.12556
273 1 1 14.9171 16.2865 1.88155 2.26175
7787 1 1 17.8618 15.5293 35.4505 1.96447
2367 1 1 1.26618 17.5437 1.51109 2.03614
5999 1 1 1.50511 16.0576 2.41713 2.83927
7887 1 1 0.523625 14.0461 2.52093 0.653836
670 1 1 15.9888 18.2974 3.82051 1.2113
7968 1 1 0.255046 14.7135 0.248894 1.26324
1509 1 1 18.8074 15.187 2.19634 0.270847
6459 1 1 2.28949 16.8396 1.50834 3.5259
1446 1 1 5.88061 0.976389 1.07713 1.12657
1328 1 1 4.68092 18.1899 1.40638 3.82801
7613 1 1 6.25896 16.1704 2.806 0.616475
3576 1 1 8.45762 18.469 0.0119027 0.965722
292 1 1 6.21883 13.3569 3.17086 1.39584
1582 1 1 8.80755 17.3496 1.25706 3.34123
814 1 1 9.47126 17.3521 35.4853 0.88469
7620 1 1 7.67307 18.2979 2.90524 0.471531
7230 1 1 10.1701 17.6265 2.35381 0.816854
1505 1 1 9.94048 16.0633 4.55624 0.686597
7149 1 1 11.1102 17.14 2.45657 0.747954
781 1 1 10.9708 17.4196 3.51977 1.72875
2661 1 1 11.6914 15.5523 1.61052 1.28606
2150 1 1 13.4821 15.3481 37.2029 2.48152
629 1 1 16.397 15.6694 2.10638 1.19017
1928 1 1 18.7297 18.0153 2.66273 0.235493
2033 1 1 16.2311 17.6695 0.586539 0.154141
7188 1 1 1.34251 17.053 3.8993 0.241872
686 1 1 1.64233 18.7821 1.47596 3.23133
7585 1 1 1.0859 18.2986 3.9469 0.803068
1140 1 1 4.03625 0.789411 2.38484 1.2275
1453 1 1 5.35266 17.7474 4.44019 2.56079
487 1 1 6.012 14.4367 2.72281 0.411111
7754 1 1 1.71811 14.6665 4.63575 2.18877
605 1 1 7.29436 18.1113 1.48907 1.9244
7996 1 1 7.88242 0.490834 1.18807 0.944753
829 1 1 10.076 16.6343 0.824929 4.84512
450 1 1 8.49972 17.1257 3.85209 2.40538
6027 1 1 11.9513 18.6402 5.79552 5.03491
7987 1 1 10.1243 18.1191 3.40773 0.203005
6673 1 1 11.3392 18.4042 3.48231 0.23105
1785 1 1 10.8548 18.4214 2.3291 3.86672
2106 1 1 15.2459 1.19975 2.61248 0.493428
1110 1 1 12.9596 15.7437 0.447718 0.492016
1200 1 1 12.8705 18.134 1.34201 1.17686
129 1 1 18.7868 1.05261 1.13328 2.83932
788 1 1 0.548693 17.3444 0.0824697 2.5348
194 1 1 2.15409 18.7509 0.621758 1.55095
310 1 1 0.522406 0.641192 4.31185 0.358102
915 1 1 2.2938 1.03229 3.11481 2.7949
7122 1 1 3.16738 18.3941 3.83262 0.149443
175 1 1 4.66991 1.52467 2.688 0.39581
1367 1 1 0.937991 0.495801 5.50295 0.566592
7123 1 1 5.42408 2.437 3.6603 1.70803
1331 1 1 5.13479 18.6001 2.96135 0.301454
7762 1 1 5.85433 1.61083 4.66606 1.99449
293 1 1 8.12551 1.00305 5.038 1.1754
7964 1 1 10.1198 1.40942 4.23086 1.00887
1658 1 1 9.30135 0.893734 4.30041 3.19532
1749 1 1 9.68455 0.911665 2.68037 0.883075
671 1 1 10.2769 18.6444 4.39138 1.02636
1213 1 1 12.517 2.17047 3.12927 0.466891
1704 1 1 12.617 17.8744 4.31396 2.62166
180 1 1 16.0844 16.9704 3.53298 0.502178
906 1 1 13.1785 0.538834 3.11099 0.856165
982 1 1 15.201 0.762149 3.86447 0.066781
427 1 1 18.3671 1.81927 4.24649 0.689997
7914 1 1 18.3618 0.85935 4.12301 2.23005
1205 1 1 16.202 0.966492 4.2797 1.27305
1265 1 1 0.688425 1.86487 4.65725 1.11702
1714 1 1 2.42717 5.19999 1.55618 0.980372
1373 1 1 4.3853 3.48918 5.60662 4.48144
480 1 1 4.11483 0.551777 4.48026 1.50234
656 1 1 6.13214 2.98536 2.38518 1.5899
56 1 1 7.34491 3.30604 3.6465 0.165239
7300 1 1 6.56748 2.52677 4.24897 0.720804
7896 1 1 7.4096 3.91321 5.13638 2.25247
1543 1 1 6.92204 2.3234 3.08351 0.605317
6986 1 1 7.37002 2.40595 1.77437 0.868691
96 1 1 9.64941 2.40492 3.56508 2.59144
1852 1 1 7.48409 2.15425 5.79992 0.84885
385 1 1 8.23972 2.97397 1.99823 1.17348
94 1 1 9.17813 2.56302 2.3806 3.1693
824 1 1 10.6359 0.624451 2.04976 0.829582
7989 1 1 10.1151 3.12354 3.00977 2.38286
553 1 1 11.5549 1.65537 4.00697 0.462129
100 1 1 11.4602 2.02982 2.77342 0.17776
742 1 1 13.861 3.33238 5.45577 1.03448
946 1 1 14.13 1.8793 5.2962 1.12173
1413 1 1 15.1812 2.04679 4.40855 0.0973779
314 1 1 17.9304 2.8735 2.29928 1.85218
874 1 1 18.6069 2.86348 5.73162 0.647156
1279 1 1 2.62157 2.59627 3.08764 0.078926
109 1 1 3.14436 2.85808 2.08851 0.717217
3 1 1 3.0955 3.60579 0.159307 1.86744
1202 1 1 5.49687 4.22725 4.7289 2.08924
527 1 1 4.33438 4.52211 5.5818 3.37451
1376 1 1 6.785 3.56367 7.25334 1.74651
479 1 1 8.82001 6.29699 6.14132 0.178949
1378 1 1 10.0488 3.82843 4.99688 0.40462
2736 1 1 7.42088 3.1098 6.23736 0.459288
3337 1 1 11.285 4.04181 1.94423 2.82548
7625 1 1 10.3279 4.0444 1.584 0.0245617
1664 1 1 12.2972 3.47094 0.509239 0.877849
685 1 1 12.8253 5.2209 0.164338 4.53636
7250 1 1 14.7253 3.70587 4.13568 0.734145
602 1 1 17.2506 5.14655 4.09183 1.06698
7950 1 1 17.2552 0.292536 3.94341 7.33358
1239 1 1 16.6582 3.69411 3.56588 0.35933
155 1 1 0.22236 3.21704 2.55283 0.477313
6152 1 1 2.35988 1.55696 2.19175 1.29672
7366 1 1 18.3759 3.66493 4.784 0.604019
7841 1 1 18.3694 2.98983 0.508292 2.92667
1596 1 1 1.40196 8.50417 2.18556 1.03919
1717 1 1 5.03934 5.3132 3.60579 1.88571
158 1 1 2.37302 7.40713 0.847121 1.72295
1883 1 1 4.81713 6.42121 3.34854 0.734821
580 1 1 5.27537 2.31694 2.69364 1.16385
5739 1 1 8.40232 5.63053 4.39706 1.33014
890 1 1 8.2436 2.76141 3.96779 0.633962
2103 1 1 10.698 2.30044 3.97752 3.25944
140 1 1 12.0341 5.74858 3.51277 0.757867
281 1 1 12.0947 3.62366 3.80803 2.26917
1262 1 1 12.1984 6.27292 5.5205 1.11671
446 1 1 12.265 4.16895 5.33877 0.133136
2075 1 1 14.6763 5.87635 4.07347 1.7617
581 1 1 16.7761 4.30203 2.67296 0.440487
7468 1 1 16.9719 2.72744 3.11489 1.9558
2432 1 1 17.0365 4.10297 4.5092 1.00805
1336 1 1 14.6651 3.54397 6.94573 2.35596
148 1 1 18.395 5.65421 3.63319 1.34513
190 1 1 0.684719 4.29962 2.11736 3.1402
3586 1 1 18.5681 4.85711 4.23388 4.07466
7683 1 1 1.21446 6.29852 5.35643 1.15575
238 1 1 4.09472 8.00229 5.53846 0.281617
729 1 1 5.37833 5.14942 5.80679 0.323922
1754 1 1 1.59717 5.34278 4.63653 4.14996
440 1 1 7.91809 7.06148 5.25501 1.83708
2397 1 1 6.67216 5.2721 3.85501 0.425552
1405 1 1 7.72205 6.97631 2.11212 0.871199
1194 1 1 9.73519 6.49636 2.4833 1.99089
1466 1 1 8.489 5.22487 5.36215 3.11989
177 1 1 10.781 4.24716 3.00452 1.85058
575 1 1 11.8038 6.2163 4.41473 0.771467
488 1 1 14.365 7.72669 3.69219 3.86137
1759 1 1 10.5572 5.74862 5.18008 1.63068
6463 1 1 14.054 7.63279 2.51835 1.45831
591 1 1 15.9225 6.23193 3.92438 0.367408
7273 1 1 16.7996 7.44208 3.8198 3.6416
3565 1 1 15.7554 7.52746 3.87096 2.98492
444 1 1 0.074279 6.27114 3.0307 0.725763
481 1 1 1.81161 7.25586 2.49282 1.50458
1942 1 1 16.5156 9.23352 3.57663 0.443546
1562 1 1 0.99283 6.68833 3.41989 4.06015
134 1 1 3.2834 7.3165 3.83286 1.22825
875 1 1 0.785989 5.09417 3.43864 1.23815
983 1 1 4.40453 7.18421 4.33496 2.58517
131 1 1 2.27743 7.60684 3.46901 1.36052
7862 1 1 4.82621 7.06282 5.89875 1.10712
541 1 1 9.24973 7.96834 4.28708 2.47797
1802 1 1 9.04155 8.81526 4.88775 0.141967
557 1 1 9.08246 7.09724 5.52596 1.9107
1069 1 1 12.3762 6.57906 1.58178 0.778013
1781 1 1 9.089 9.91506 4.07545 0.203115
1422 1 1 14.3618 4.18204 3.27963 0.405723
1833 1 1 12.9926 7.873 3.25273 1.45016
960 1 1 17.2861 7.71108 2.80905 1.80146
305 1 1 17.332 8.66442 5.62624 1.32683
1183 1 1 15.5699 4.32299 1.9361 1.9952
1000 1 1 18.042 8.7949 4.44105 1.96734
1709 1 1 0.0810804 6.87481 4.09873 1.55518
2357 1 1 3.35387 11.3938 2.83192 3.07018
2110 1 1 1.03909 9.43959 3.34527 0.798596
1399 1 1 0.298433 7.80294 4.51268 2.22748
1113 1 1 0.230157 9.76559 4.17147 1.612
7845 1 1 0.849323 12.0571 1.12691 0.676219
114 1 1 2.58103 10.3452 2.40962 0.909601
1917 1 1 3.31102 7.92761 2.87632 1.4388
1280 1 1 2.15814 9.11124 1.83262 2.80943
478 1 1 7.00107 9.7799 4.4581 0.488939
1415 1 1 6.67311 8.87507 3.2945 1.8379
378 1 1 9.98323 11.1982 3.69115 2.35625
374 1 1 10.354 11.2899 4.69244 0.742158
7531 1 1 10.2161 10.5262 5.87054 1.9797
1460 1 1 12.363 8.23825 3.99425 0.221385
641 1 1 14.2965 10.3433 5.57007 1.09891
6875 1 1 16.5414 9.56092 2.29128 0.87142
1870 1 1 17.2658 10.0493 4.22126 0.0424788
6719 1 1 18.2328 10.7652 4.4041 0.506646
1276 1 1 2.92935 11.8263 5.22613 0.20608
336 1 1 0.562938 10.4552 3.45703 0.553188
916 1 1 3.65766 9.09534 4.79589 1.14471
1863 1 1 2.85645 9.4011 4.05462 2.92617
2311 1 1 3.45619 10.1903 2.7894 1.77228
1728 1 1 2.43615 11.8931 4.02019 0.812394
408 1 1 4.73172 12.6383 4.21866 4.34354
1417 1 1 6.09288 10.0146 3.74285 0.355026
365 1 1 6.63723 11.7829 1.3742 2.11884
1465 1 1 7.95221 7.98816 4.21931 1.6601
1001 1 1 6.90819 9.68861 0.783742 0.36591
1046 1 1 8.04245 10.0833 1.19516 4.46052
277 1 1 11.3204 9.47835 3.91263 1.79969
64 1 1 9.66035 12.6675 5.36945 2.95033
241 1 1 10.8067 12.052 5.96958 0.755146
1017 1 1 12.3482 10.0456 5.06075 5.19708
7573 1 1 10.1435 8.83074 4.26732 0.81545
7739 1 1 11.6208 7.4236 4.75766 1.99685
433 1 1 12.3583 12.7728 0.301458 1.76153
2062 1 1 11.5729 11.8683 4.93598 1.02245
1706 1 1 16.1234 11.3323 5.54381 0.123816
7444 1 1 13.4826 10.7233 3.83057 2.42905
386 1 1 14.8935 12.1807 2.13782 3.70857
1533 1 1 15.3977 9.47444 5.32297 1.30235
683 1 1 15.897 11.6361 1.01245 0.534797
1965 1 1 14.9518 9.56485 4.31295 0.555299
1349 1 1 15.83 11.0231 2.0788 1.5417
7350 1 1 2.4853 10.9514 4.55596 0.785973
7927 1 1 3.85444 11.5933 7.43953 2.81477
243 1 1 3.55994 11.3589 3.96199 1.90571
863 1 1 1.37217 10.1505 2.11159 0.757732
1958 1 1 6.09357 14.2501 3.75066 1.25609
344 1 1 5.25398 10.5754 3.35944 1.08853
216 1 1 7.72715 10.9763 3.77989 4.22541
1163 1 1 6.12114 12.4623 3.93455 2.22027
699 1 1 7.02306 11.7743 3.80555 2.54755
823 1 1 8.36311 12.0341 5.52221 2.09645
1545 1 1 12.8755 11.8324 5.63266 1.24783
1165 1 1 9.34553 11.9606 3.33042 0.937225
7984 1 1 11.1578 10.7452 3.48006 1.96743
6590 1 1 12.3908 11.8879 1.54851 2.14119
6750 1 1 11.1943 11.134 0.27145 0.392526
1187 1 1 13.5816 13.7981 2.67023 2.70363
1676 1 1 13.5321 14.118 3.86693 0.325867
1087 1 1 14.942 10.4438 4.73428 0.747972
1351 1 1 17.4727 11.7375 4.58856 0.776934
1528 1 1 18.6963 11.6118 1.65526 3.32154
1360 1 1 1.10721 12.0608 3.18064 0.219098
1116 1 1 0.759219 14.866 3.95897 0.402129
6720 1 1 5.38449 12.4674 5.21668 0.638162
6563 1 1 0.400509 12.2886 4.03403 4.52981
1082 1 1 3.7054 12.5924 4.77047 0.684493
1526 1 1 6.26457 14.8838 5.92361 0.382145
7376 1 1 5.55409 11.4178 5.68526 0.167221
1448 1 1 7.98353 13.8766 2.88463 2.11556
1210 1 1 9.15575 14.0323 2.73378 0.293935
6683 1 1 8.80417 13.094 5.84153 1.30028
7464 1 1 8.69191 12.0573 6.44098 1.36039
7990 1 1 10.1088 13.6813 4.97325 3.40035
221 1 1 10.2938 10.9176 2.4001 0.620493
1590 1 1 14.9864 13.8234 4.63526 0.351545
1147 1 1 11.2111 14.4682 4.36767 0.207992
7993 1 1 16.6037 13.817 3.17852 1.25287
818 1 1 16.6434 11.753 2.4438 5.43299
669 1 1 16.7671 11.0078 1.48187 0.636177
2798 1 1 15.793 11.7986 4.33814 0.431156
259 1 1 18.7964 12.7584 2.33887 0.672924
1971 1 1 18.2092 13.05 3.20047 3.29674
240 1 1 15.7964 10.2082 4.25346 1.33794
608 1 1 18.6481 17.1634 3.14027 2.14898
126 1 1 18.7415 17.336 4.68402 0.551853
1282 1 1 2.14311 15.6657 4.10637 1.81285
2755 1 1 2.66005 14.6754 5.70425 1.39599
795 1 1 3.13845 14.8637 4.93431 1.37075
840 1 1 5.96827 13.8196 5.12068 2.11777
834 1 1 6.28081 13.9364 1.60761 3.19512
1337 1 1 5.66393 15.6817 4.31477 0.632383
684 1 1 5.14424 14.7207 0.33542 1.74938
504 1 1 6.5868 14.9271 1.58811 2.14926
902 1 1 6.54281 15.3807 3.69633 1.05847
391 1 1 7.23943 14.3899 5.56138 0.145481
452 1 1 7.51734 14.9525 3.3416 1.88632
7543 1 1 13.1125 15.3147 4.51583 0.988066