ITEM: TIMESTEP
500
ITEM: NUMBER OF ATOMS
8000
ITEM: BOX BOUNDS pp pp pp
0.0000000000000000e+00 1.8820720577620570e+01
0.0000000000000000e+00 1.8820720577620570e+01
0.0000000000000000e+00 3.7641441155241139e+01
ITEM: ATOMS id mass type x y z v_temp
1634 1 1 18.1562 1.76543 1.61117 0.495477
1142 1 1 17.3686 1.96184 37.214 1.2808
7604 1 1 1.3523 17.4625 0.939027 1.45816
7210 1 1 3.18789 17.469 0.781015 2.44305
318 1 1 1.83436 18.4247 1.75791 1.64856
287 1 1 5.92908 0.570462 37.3961 2.24349
7226 1 1 4.87921 1.70963 1.05682 1.0101
6076 1 1 6.77405 2.35501 0.237865 1.33721
7503 1 1 6.21922 1.9496 1.18845 0.0738394
6017 1 1 8.52434 1.67888 0.84449 0.144775
7535 1 1 8.79317 0.616138 37.5773 1.0596
2020 1 1 10.1027 1.65794 37.5284 2.3748
696 1 1 12.4388 1.0763 0.205016 2.34589
383 1 1 15.1206 0.659305 2.68714 0.125809
640 1 1 13.1037 1.75373 2.84121 1.48846
7930 1 1 15.6655 18.0081 1.13191 0.0457826
554 1 1 16.9685 18.0307 36.5876 0.622675
7471 1 1 17.6582 2.04988 36.2187 1.89178
1198 1 1 0.404965 1.27902 1.79816 0.0555886
576 1 1 18.1237 1.91013 0.445494 2.9331
115 1 1 18.0192 2.84914 37.29 1.68946
816 1 1 2.24025 2.43774 1.36695 1.14308
6995 1 1 3.82206 2.81856 1.65644 1.14353
2126 1 1 6.49502 1.85128 2.18149 0.443345
172 1 1 5.08171 1.47523 37.2189 0.193921
5756 1 1 7.90746 2.34023 37.5202 4.8455
6659 1 1 8.78175 3.40482 2.71785 0.405772
1206 1 1 8.55356 1.52039 2.44895 1.18012
7660 1 1 6.11875 3.89553 37.1993 2.16043
2305 1 1 9.64418 2.57991 0.144436 2.34461
7725 1 1 10.9342 3.63529 2.00918 1.40831
6691 1 1 12.1109 2.24395 36.4779 1.70752
1308 1 1 13.3552 1.81861 1.06455 0.735008
1269 1 1 15.7813 1.62021 1.41238 3.10351
6873 1 1 12.6039 2.74238 0.264684 0.596513
7830 1 1 13.4249 0.493586 1.87702 2.57481
7423 1 1 13.9275 0.979847 2.65478 1.01151
1344 1 1 16.026 2.70282 1.04943 3.34427
7998 1 1 17.2026 3.50967 2.71376 2.45885
18 1 1 0.132129 2.60543 1.48428 3.33566
47 1 1 18.6655 3.55878 1.0677 0.651719
366 1 1 0.563174 4.8398 0.087457 0.246283
1481 1 1 1.19317 0.261535 1.12979 0.667027
7456 1 1 2.56982 4.92177 1.83671 1.09761
7697 1 1 3.37932 3.48941 0.88131 3.14832
402 1 1 3.90827 4.21241 37.5371 1.02438
879 1 1 5.01416 2.84244 0.967458 1.41296
7667 1 1 7.16974 4.13583 36.7908 1.94422
464 1 1 7.49427 3.03822 0.561697 2.97722
543 1 1 9.91404 6.28204 0.959732 3.66375
2348 1 1 9.61804 5.21735 0.585813 1.00972
7010 1 1 13.8918 2.86102 0.85704 1.30831
73 1 1 9.30457 4.19091 0.12233 0.341439
151 1 1 16.6754 5.54357 37.2459 1.32948
1315 1 1 14.5665 1.70123 37.2385 0.982349
6648 1 1 1.33789 2.79438 0.959096 1.78379
762 1 1 17.2439 6.44879 0.287116 1.87452
791 1 1 18.644 5.5314 36.047 0.87306
7980 1 1 17.5588 4.61657 1.94912 10.2199
802 1 1 1.10838 5.33678 1.93604 1.01835
7879 1 1 4.29998 5.29648 37.4384 0.379736
7631 1 1 5.4816 3.94241 0.327096 2.15883
548 1 1 4.43041 6.95534 1.92055 0.820736
217 1 1 6.58464 4.82642 37.3906 0.188855
1076 1 1 8.56127 5.09495 1.48231 1.70887
945 1 1 6.16318 6.26386 0.0965493 0.364819
697 1 1 9.69156 6.32786 36.7036 1.99999
1330 1 1 11.1996 7.59602 36.8308 0.121318
1380 1 1 14.9185 4.28679 37.0943 3.0694
7911 1 1 15.0317 2.47365 0.347638 1.3886
2160 1 1 16.2987 6.52385 37.184 3.50965
7937 1 1 18.2153 5.68721 0.728397 2.35949
1713 1 1 1.02518 4.12832 37.2284 3.92528
924 1 1 0.698903 9.01251 0.724547 0.369258
34 1 1 17.9041 4.64102 37.5605 2.48582
6762 1 1 0.837657 7.9608 1.27022 0.529748
1158 1 1 2.51153 3.81066 0.593169 2.36067
997 1 1 4.83979 6.27627 0.399779 1.01236
645 1 1 4.58027 6.48665 36.996 1.99989
930 1 1 4.45632 7.50888 37.4316 2.97092
568 1 1 7.35263 7.16083 1.73218 0.403104
7748 1 1 8.62166 7.61061 1.39344 1.97056
7921 1 1 6.98657 5.93922 2.24457 1.47663
5854 1 1 7.67138 6.08662 36.3514 1.90134
6669 1 1 13.1374 7.81887 1.3515 0.36311
6497 1 1 11.7788 7.40222 0.501766 1.10345
7420 1 1 10.5897 7.29245 0.844617 0.725469
214 1 1 12.3401 6.0781 0.983034 0.731249
721 1 1 11.5333 9.07117 37.4987 0.786087
181 1 1 12.4753 5.47289 0.137042 0.317073
193 1 1 11.6829 5.30531 1.24161 0.61685
7972 1 1 15.399 7.03889 0.700783 1.74339
1359 1 1 14.3376 4.75021 0.244994 1.34955
7641 1 1 16.906 6.2696 1.64999 1.13009
1318 1 1 0.206414 7.4993 2.15083 0.752922
6533 1 1 0.157748 7.93184 3.42891 1.38433
7351 1 1 1.45937 8.34793 0.611044 0.496654
7657 1 1 1.13906 10.8009 36.1001 0.581756
925 1 1 3.89075 8.18589 36.6553 2.93547
6235 1 1 6.07573 7.17897 1.42457 0.421603
331 1 1 5.07779 8.95269 37.0501 2.31281
7958 1 1 6.74074 7.35361 0.525315 0.182087
178 1 1 5.18216 9.67554 0.421776 1.03568
7335 1 1 9.64064 8.12329 1.84953 4.07941
5813 1 1 5.923 8.46351 0.16342 1.2343
6538 1 1 9.54819 7.38396 0.245766 0.125273
461 1 1 11.4469 10.7921 36.7904 1.57631
7348 1 1 13.7693 6.68599 1.1173 1.89448
6705 1 1 16.8662 7.88103 0.17016 1.39497
498 1 1 12.1523 7.46227 3.11526 0.104884
7851 1 1 15.2752 7.63767 3.80303 0.596588
7800 1 1 18.0507 9.45579 1.80297 2.7006
230 1 1 18.2709 6.60471 1.73596 0.732883
7734 1 1 0.0638357 10.7549 36.2684 1.20861
1637 1 1 0.253343 8.79516 2.80491 3.02191
6987 1 1 6.12454 9.77697 1.78962 0.75428
7791 1 1 4.54575 7.80899 2.55129 0.838249
5753 1 1 6.88212 9.63177 0.244525 1.02814
6566 1 1 7.95231 9.75728 0.513845 1.74617
1790 1 1 6.23871 11.0955 2.06738 0.704012
3250 1 1 7.47983 11.5044 0.157313 1.66005
1038 1 1 8.13131 8.48298 36.7256 0.976823
570 1 1 12.1182 9.10278 0.792922 0.638189
7943 1 1 11.5647 8.51653 1.40832 0.186858
2177 1 1 10.7001 8.2524 37.6021 2.2804
86 1 1 13.7184 9.82296 0.863555 1.78918
7979 1 1 13.0554 8.37759 4.27831 0.0944591
79 1 1 15.7286 9.83841 1.11032 7.93611
6241 1 1 16.0387 8.12712 2.26976 3.87147
648 1 1 13.7994 9.06347 1.63338 2.19601
736 1 1 16.5798 9.17405 1.18265 0.909747
1036 1 1 16.8485 10.2481 36.6076 0.0700824
884 1 1 17.4163 9.07272 0.326062 0.0730907
340 1 1 3.29893 13.2847 1.61579 3.16679
1350 1 1 1.20311 11.8334 36.426 2.30012
6578 1 1 4.96901 8.6648 0.883367 1.80368
1172 1 1 3.94656 10.8932 1.36488 2.04521
639 1 1 4.65979 11.2845 37.3614 3.42651
7891 1 1 8.31959 14.9923 1.0436 1.35795
7002 1 1 10.3223 9.40353 1.12219 1.11903
1542 1 1 9.09938 10.7117 0.992588 0.283745
6536 1 1 9.39152 11.5498 1.37954 0.166051
7156 1 1 12.8385 10.8146 0.400906 2.29634
7452 1 1 13.6358 12.9373 0.882381 2.56543
7635 1 1 14.1316 11.7669 0.333557 1.91657
379 1 1 16.9 11.672 0.357617 0.341216
1074 1 1 17.01 11.2767 37.0687 1.44189
7836 1 1 0.826433 13.2796 36.839 2.72787
7863 1 1 2.8737 13.7927 2.4301 0.0545173
7446 1 1 17.8174 12.13 37.4214 0.57104
6646 1 1 2.19392 11.8978 1.91407 0.421637
8000 1 1 4.71463 12.4815 1.46468 3.54732
7056 1 1 5.36723 13.1859 1.04313 1.35381
7621 1 1 5.03056 11.4811 1.84196 0.271465
6252 1 1 6.97765 12.2074 0.690067 0.917588
532 1 1 7.05656 10.26 37.0633 3.26906
7065 1 1 6.53661 10.9497 0.217257 0.458315
7457 1 1 9.70374 12.6254 1.25926 1.10588
1178 1 1 10.3508 13.4297 1.36123 1.32411
7704 1 1 9.04922 12.5193 2.64975 2.21565
6699 1 1 13.7087 12.3754 2.10184 0.398147
1976 1 1 13.0516 11.7854 37.5934 2.41698
57 1 1 15.8864 10.5045 36.9976 2.78822
234 1 1 16.7277 13.7308 1.55158 0.262757
7189 1 1 16.0194 12.1586 35.7849 1.38288
7847 1 1 2.56198 14.4776 1.32911 0.679797
6243 1 1 5.9144 14.521 0.87701 1.46332
7051 1 1 3.93444 13.7473 2.44788 0.943831
7610 1 1 4.94914 15.1737 1.3789 0.694511
1081 1 1 9.16426 13.231 0.747112 0.724257
1144 1 1 7.316 13.6307 1.88495 3.5675
6898 1 1 6.01705 14.4138 37.246 3.00426
67 1 1 8.2976 13.262 2.24232 2.86244
38 1 1 10.2433 12.8733 0.518724 2.48288
377 1 1 13.496 13.5167 1.77108 0.165748
501 1 1 14.6063 12.6207 37.5541 0.298515
7826 1 1 17.2965 13.6039 0.601895 0.895233
7483 1 1 16.1846 12.0631 1.58364 0.636285
7052 1 1 18.0556 15.621 1.3479 1.8677
579 1 1 17.9862 14.5041 1.04079 1.18996
634 1 1 18.4924 13.4861 0.167215 2.16398
962 1 1 2.40348 13.7943 3.24699 1.25939
704 1 1 3.20228 15.5113 36.9849 4.33388
1529 1 1 3.32349 14.2382 0.381721 0.65802
6321 1 1 4.4698 16.9957 37.2572 0.332442
203 1 1 4.3926 14.291 1.65143 0.336502
154 1 1 6.33025 13.5278 36.8044 1.5665
734 1 1 7.44164 14.1136 37.3407 0.487925
6379 1 1 7.04685 14.879 0.677123 0.421895
1908 1 1 10.4388 15.1489 1.53802 1.20501
7569 1 1 9.23517 15.3727 1.18103 1.40686
227 1 1 9.61332 14.4914 1.73324 0.363179
1134 1 1 9.34711 16.7388 0.527924 0.918228
22 1 1 12.4685 16.2764 1.25161 0.251357
1143 1 1 14.0516 13.3012 2.56055 0.752126
1474 1 1 16.1629 14.8088 0.311818 2.69725
7548 1 1 16.3061 14.4991 2.58833 0.768417
668 1 1 17.1028 14.957 36.9022 1.49279
559 1 1 2.13125 15.6771 37.2257 2.70633
2134 1 1 2.2102 17.867 37.1943 0.880075
311 1 1 2.57215 16.8376 0.109739 1.825
7934 1 1 3.64431 17.1851 1.91342 1.77988
439 1 1 3.10977 16.2679 2.37769 1.35934
7767 1 1 5.71307 16.2743 35.392 1.6586
399 1 1 5.17149 15.8996 0.501869 0.664222
7214 1 1 7.02082 14.6369 36.2841 0.601617
7180 1 1 8.36319 14.8697 36.1347 1.24292
6835 1 1 5.68155 18.6016 1.48067 0.321205
7206 1 1 8.32042 17.4125 1.10764 0.327984
7616 1 1 10.0149 0.279334 35.9151 0.28228
841 1 1 11.3898 17.1209 1.61678 1.81271
7736 1 1 9.48376 15.684 37.128 1.85846
7779 1 1 11.8826 17.7981 0.256527 1.13077
2343 1 1 13.101 16.6615 36.2029 1.76584
1916 1 1 14.5872 15.9257 37.273 2.37544
6913 1 1 15.3473 15.0227 2.21088 1.46052
2038 1 1 16.1398 17.0084 1.24396 0.946169
7855 1 1 0.0651556 14.2744 1.85355 1.29281
1042 1 1 16.9986 16.9567 0.172857 0.77396
7999 1 1 18.0583 15.728 37.0109 0.815964
1569 1 1 1.19737 16.4165 0.67199 0.918559
7265 1 1 2.90046 0.262554 1.21419 4.45761
332 1 1 2.32493 18.348 0.663914 3.21113
6777 1 1 0.865028 17.9904 1.66624 0.908493
6866 1 1 6.46402 18.2678 2.01198 0.480019
7267 1 1 5.32664 0.315188 0.547764 1.70322
1729 1 1 5.6131 17.0004 2.33662 0.772849
43 1 1 5.93 17.215 1.36966 1.71592
7581 1 1 7.41465 17.8558 36.8598 1.06565
7678 1 1 7.0786 0.4823 3.25893 0.493706
1895 1 1 4.78286 17.5875 1.61399 0.348887
708 1 1 9.17775 0.676364 2.02369 1.19117
7961 1 1 9.849 18.1705 1.82593 1.02048
7705 1 1 13.0276 17.0267 2.30287 0.723682
356 1 1 12.7246 17.683 0.871149 1.57911
6636 1 1 15.0934 17.5328 0.400589 1.33982
343 1 1 13.4928 16.8269 1.27441 2.2082
6723 1 1 15.1132 16.3682 2.06268 0.62376
7088 1 1 18.0944 18.0404 36.7266 1.26686
3499 1 1 16.4394 0.983108 0.692086 1.45888
7261 1 1 18.6508 17.8844 0.390207 0.161052
489 1 1 2.66579 0.577002 4.50053 0.52846
1168 1 1 5.12404 0.298096 3.13071 1.51204
445 1 1 5.00048 16.4253 1.83042 0.460229
1930 1 1 2.85569 16.7095 3.18746 2.10209
1257 1 1 5.38782 18.313 3.8985 2.96627
497 1 1 6.11928 1.22965 3.07345 1.62258
89 1 1 8.22336 1.24017 3.6315 3.33277
1208 1 1 7.17144 1.55238 3.08426 2.12353
7785 1 1 7.06131 0.518578 2.02767 0.494301
505 1 1 11.2626 1.33751 2.10149 0.170517
7745 1 1 10.9291 1.66995 3.40735 1.09292
1339 1 1 9.37243 2.0266 1.29357 2.58151
677 1 1 12.3311 1.24685 1.9781 1.11966
700 1 1 12.7594 0.713076 3.18283 3.51155
31 1 1 16.7909 2.74222 1.89708 1.39329
7478 1 1 15.6451 18.7166 2.1209 0.44323
787 1 1 16.4106 1.40978 2.25682 0.423929
351 1 1 18.1579 18.469 2.60196 0.821118
7647 1 1 17.8503 18.1151 1.56533 1.95203
1718 1 1 0.741605 0.688291 3.01771 0.360393
1766 1 1 1.44466 18.1723 2.80464 2.30406
547 1 1 3.46564 1.6591 1.26274 0.0175769
936 1 1 4.44126 2.08672 1.93676 3.23418
2026 1 1 5.00167 1.33992 3.65165 1.88726
569 1 1 4.0471 1.61676 37.2039 2.28916
566 1 1 7.44667 1.42953 2.06056 0.665707
633 1 1 6.78655 0.509525 0.868609 0.551148
886 1 1 7.99499 2.2282 3.06347 1.48241
593 1 1 10.0102 4.1573 0.977548 6.65514
173 1 1 9.36052 18.6042 2.6761 0.973678
7332 1 1 9.07687 3.60096 1.5801 1.161
21 1 1 10.6597 1.73595 1.16724 2.54766
7155 1 1 13.1898 3.52913 3.0104 0.956664
7669 1 1 14.5795 1.81482 2.8653 2.32659
1020 1 1 14.369 2.89559 3.41271 0.464547
859 1 1 16.7754 18.6491 2.96474 0.219424
7549 1 1 16.9485 2.05636 4.72386 0.530007
1348 1 1 18.5357 2.6781 3.31019 3.31956
7440 1 1 18.7696 1.26997 2.84534 0.210828
7903 1 1 0.522899 3.33979 2.42808 0.465804
7795 1 1 1.21151 8.31395 2.67568 4.97693
7284 1 1 5.0799 3.46047 3.06982 0.536391
6767 1 1 5.96994 5.50116 3.32751 1.37516
835 1 1 6.71806 2.70526 36.9757 4.13399
2824 1 1 4.60669 5.49793 1.05651 0.28914
7718 1 1 5.96942 3.08411 1.1762 1.32833
7653 1 1 7.49094 4.15859 0.391466 2.09137
7215 1 1 6.65803 4.4213 2.0826 2.69986
623 1 1 7.79997 4.59551 1.9252 2.82187
1416 1 1 7.42895 1.45769 0.946417 2.02592
7666 1 1 9.89414 3.56755 2.10328 0.83023
492 1 1 11.4312 4.77182 2.18225 0.640661
7387 1 1 10.2693 4.34302 37.4465 1.32401
6541 1 1 13.8252 2.82076 2.25319 3.60778
7246 1 1 15.3385 2.6151 2.79779 1.16733
7938 1 1 16.6393 2.60932 3.57724 0.261133
651 1 1 17.4785 3.15743 0.695994 0.490302
7844 1 1 15.5292 4.67792 0.10165 3.73407
6975 1 1 0.915491 6.36933 2.51101 0.360546
5621 1 1 1.94256 5.83586 2.52229 0.609617
6396 1 1 2.391 6.98406 1.00556 0.831854
7659 1 1 4.00466 6.84694 0.972569 1.54893
1237 1 1 5.06002 4.6468 2.7692 1.70024
15 1 1 4.16526 4.909 3.38186 1.84308
7251 1 1 5.00976 4.35715 1.60158 3.39123
7924 1 1 5.15587 5.12289 4.08354 1.34083
661 1 1 6.46707 4.51967 3.5904 1.95977
7532 1 1 5.87242 5.43146 2.29359 4.90546
585 1 1 7.5776 3.97822 3.09527 1.02005
934 1 1 9.42752 4.64704 1.82648 1.09914
6703 1 1 9.21736 5.70228 2.04447 0.35032
1369 1 1 10.1041 7.15028 2.1842 2.19643
91 1 1 12.3055 5.3813 2.02927 0.802464
528 1 1 9.44346 4.57081 2.81589 1.79877
985 1 1 11.1521 6.2043 1.74226 2.80154
387 1 1 14.4959 3.80827 2.61594 2.38434
1473 1 1 16.4471 3.77289 1.09944 3.20656
271 1 1 14.1136 4.56074 1.89794 1.78986
511 1 1 15.1571 2.57743 1.52994 1.9159
966 1 1 17.2608 5.41121 0.570095 0.503022
914 1 1 15.7126 3.63602 2.37225 0.318751
7432 1 1 17.7585 5.62169 2.34811 0.27398
7966 1 1 3.62213 8.0393 2.8589 0.638053
206 1 1 16.4908 4.74643 1.55046 0.836288
7967 1 1 2.47802 7.78529 0.0733952 1.75813
442 1 1 4.09317 9.26176 2.44344 0.100757
7944 1 1 3.60718 8.3326 0.00875417 1.13405
7803 1 1 6.77602 6.80131 2.9205 2.12128
1177 1 1 7.61599 5.93031 3.51473 1.38355
6136 1 1 9.09377 6.71047 1.77157 0.45518
7663 1 1 9.06529 6.45606 0.382713 0.668792
7138 1 1 10.3421 8.8609 2.33648 2.98955
7904 1 1 8.07445 5.87498 1.7234 0.29828
1051 1 1 8.56145 4.9641 2.49951 1.09968
7422 1 1 13.8353 7.26962 3.08896 2.00405
469 1 1 12.0562 5.57621 2.9903 1.75015
7611 1 1 13.5094 4.89681 3.8448 0.108547
188 1 1 11.3509 7.31852 1.80121 0.870169
1329 1 1 12.1496 4.26838 1.7748 1.26052
5812 1 1 14.8095 6.54345 3.67471 2.82976
35 1 1 15.4187 6.98902 36.977 1.88153
1377 1 1 14.7076 5.09872 3.88674 1.68727
2197 1 1 16.1967 4.92305 2.64033 0.275264
7544 1 1 16.147 6.21651 3.94362 3.94896
223 1 1 15.3063 5.59635 0.703437 3.61196
72 1 1 0.331332 5.54097 1.35652 0.717623
75 1 1 0.107974 4.7235 2.14298 1.23033
2320 1 1 16.7413 6.70914 2.99385 1.43073
5817 1 1 3.99642 8.10971 1.58246 0.459282
7322 1 1 7.95682 7.87795 2.35615 0.477932
626 1 1 6.32885 8.42917 2.79699 0.47207
7738 1 1 5.49826 7.56724 3.34487 1.02133
1648 1 1 8.70078 8.04752 3.24811 1.29748
571 1 1 10.4609 8.19437 3.36248 1.57587
5690 1 1 10.6153 8.25081 1.31762 0.68122
2244 1 1 12.0361 10.1188 0.120672 0.471985
122 1 1 10.2282 5.29326 2.62008 2.70167
1441 1 1 14.5238 7.40521 5.14538 1.96074
276 1 1 14.5649 6.219 1.64253 0.206061
108 1 1 15.786 7.8805 0.774381 2.07413
186 1 1 17.4733 9.83551 3.45998 1.06967
1314 1 1 0.0985137 10.0286 37.2932 0.859021
1005 1 1 2.95752 8.03701 1.66329 1.48912
7326 1 1 5.25342 9.10386 1.86432 0.432035
1681 1 1 5.32212 10.2979 2.30465 1.08366
6874 1 1 7.35605 9.08915 36.8001 6.87918
1301 1 1 5.03021 8.70182 3.35057 1.46809
10 1 1 6.00921 10.7702 1.08671 0.659142
7459 1 1 8.59994 8.78932 1.6551 2.37191
765 1 1 8.20097 11.1229 2.50901 5.31791
1475 1 1 9.42749 9.69761 1.51448 2.78082
672 1 1 11.1732 7.49153 2.7996 5.11863
6896 1 1 10.4727 10.735 2.03331 0.303785
7538 1 1 10.3837 9.79707 2.94527 2.17221
1193 1 1 13.7293 6.13615 2.30602 2.2098
7185 1 1 13.8114 7.40676 1.95329 1.56983
1906 1 1 13.4336 8.02301 2.60997 2.05108
1426 1 1 12.0922 8.61757 4.83488 0.432539
1478 1 1 15.0771 9.31347 4.57421 1.62316
6561 1 1 18.3686 10.5559 2.2079 0.0855015
84 1 1 17.0303 9.72496 2.141 2.13285
1093 1 1 1.6131 10.9361 0.535326 1.89937
300 1 1 1.22616 11.9522 1.17462 8.89084
877 1 1 17.9902 10.3345 37.3815 1.07082
970 1 1 6.19926 11.0866 3.29001 0.179896
7482 1 1 4.17876 11.0137 2.43069 1.01717
7805 1 1 3.19622 11.8874 2.21566 6.54883
1211 1 1 5.65998 9.6994 3.13243 0.746093
290 1 1 6.26049 12.2036 2.70324 0.960325
7643 1 1 7.28925 9.57894 1.56472 2.23888
691 1 1 7.85066 6.92531 2.79901 0.693964
955 1 1 8.24212 11.8228 1.84254 1.09471
1224 1 1 10.1146 10.7609 1.01346 2.39444
232 1 1 12.1699 11.3614 1.17307 1.70102
7983 1 1 14.4933 9.74177 2.49868 2.74134
296 1 1 14.7232 10.6234 1.21126 0.352669
610 1 1 12.3286 10.3056 1.31119 1.29963
2017 1 1 15.3992 8.99358 1.73381 1.00461
712 1 1 18.3194 10.5043 0.977093 2.97239
7470 1 1 17.1985 10.2251 1.07547 4.11583
146 1 1 0.184175 9.78662 1.67453 1.54455
2662 1 1 17.5848 11.8858 1.09885 2.45993
1234 1 1 18.0664 11.9347 2.0446 1.40371
7474 1 1 3.0431 12.8897 2.94545 3.85489
967 1 1 2.26544 11.0747 2.48552 1.13792
7060 1 1 1.80785 10.6952 1.57531 1.68871
369 1 1 2.8531 11.6422 3.06439 0.802047
7249 1 1 3.30091 13.2209 4.31499 0.860699
325 1 1 7.92225 13.108 0.900326 2.38395
773 1 1 4.37582 12.5088 2.4596 3.49873
453 1 1 6.42335 11.6621 4.91923 0.76911
627 1 1 9.76595 11.8451 4.19422 1.92209
7004 1 1 11.1207 12.3981 3.36672 0.634587
1103 1 1 12.2217 13.953 1.98936 0.672986
738 1 1 13.6997 10.248 2.08196 1.05418
286 1 1 11.5266 12.8269 1.21912 0.358847
574 1 1 14.1691 11.4012 1.86783 2.35403
1107 1 1 11.0325 10.0792 1.04176 2.48924
7512 1 1 15.9189 11.1311 0.386884 0.76745
973 1 1 15.4112 10.3445 1.8951 0.747802
7772 1 1 1.01677 12.51 2.09986 0.288726
163 1 1 3.86818 13.2587 3.49926 1.06982
1486 1 1 3.45338 14.4709 4.16563 0.0113613
7085 1 1 5.05841 13.3436 3.74023 1.07393
584 1 1 6.27089 13.2262 2.2832 4.99363
255 1 1 6.66333 13.165 0.979664 0.365552
688 1 1 6.98822 12.0453 5.84012 2.32731
1128 1 1 8.30361 14.266 4.53263 1.00125
7139 1 1 8.11489 14.4254 2.37657 3.7242
1912 1 1 9.31554 13.4856 1.75382 0.450486
1139 1 1 8.95827 15.097 2.22105 0.706267
7545 1 1 11.7364 13.2877 2.86336 2.69081
423 1 1 12.8208 12.5324 3.05018 1.61482
6686 1 1 11.1393 14.4394 0.86071 1.23089
7834 1 1 12.6914 14.8348 2.61318 3.50588
6824 1 1 15.2055 12.3618 2.12351 1.84662
7040 1 1 12.7745 14.7066 1.21256 0.129439
6599 1 1 15.6639 13.78 2.05858 1.15211
389 1 1 15.0294 14.1723 2.93639 0.282049
375 1 1 17.1352 12.7043 1.34372 0.794962
7867 1 1 18.2391 13.3201 1.26015 1.60302
1567 1 1 18.3899 11.5388 0.461967 2.79624
2358 1 1 17.9365 13.2505 2.43084 0.853053
1445 1 1 1.46123 15.8823 3.7689 2.51198
7555 1 1 0.222354 15.1135 0.969332 2.52205
757 1 1 1.17991 15.2366 1.73661 1.50546
1485 1 1 4.05167 15.9273 1.78004 1.84323
815 1 1 7.27844 16.2544 0.741238 5.19902
7926 1 1 6.57836 16.159 2.28958 0.0589764
749 1 1 7.96741 15.7254 0.30741 0.455887
6851 1 1 10.1297 13.8218 2.4111 0.358807
872 1 1 8.1456 15.9994 1.51914 1.02179
7700 1 1 8.31905 16.6965 4.2273 0.0294942
7489 1 1 12.0167 14.9538 3.78284 4.2667
256 1 1 9.3921 16.1836 2.94514 1.17876
976 1 1 12.1151 14.0858 37.5746 4.93144
381 1 1 10.9446 14.955 2.67393 6.29054
273 1 1 16.1963 15.7674 2.01012 5.23425
7787 1 1 18.7566 14.8959 35.423 0.851133
2367 1 1 0.252109 17.0373 1.27576 0.440763
5999 1 1 2.20988 16.0409 1.35033 0.382522
7887 1 1 18.3605 14.3684 2.98229 2.09759
670 1 1 17.5194 18.3087 4.83273 2.17304
7968 1 1 0.71951 16.0281 1.56503 1.94467
1509 1 1 0.134562 15.4232 2.33671 0.247882
6459 1 1 2.23366 17.2606 1.46462 0.305697
1446 1 1 4.66074 18.7549 1.76732 0.325599
1328 1 1 5.37379 17.8121 0.396126 0.472635
7613 1 1 7.034 17.2491 1.96338 3.88394
3576 1 1 7.32315 16.4042 37.1691 2.47503
292 1 1 7.03113 13.6413 3.12236 1.41187
1582 1 1 9.2478 17.2684 1.84806 0.588482
814 1 1 11.2277 17.5025 36.2626 5.00449
7620 1 1 8.24682 17.6729 2.5072 2.97791
7230 1 1 10.0691 16.7531 2.56312 1.11356
1505 1 1 9.33913 16.0571 4.22031 3.96911
7149 1 1 11.9916 16.1575 2.25578 0.291372
781 1 1 11.4184 18.0404 3.43367 1.5453
2661 1 1 11.8458 15.0707 1.82018 0.21007
2150 1 1 13.0741 16.0006 0.401854 3.26478
629 1 1 17.3685 15.9094 2.09931 1.85088
1928 1 1 18.7613 17.9165 2.20964 1.23522
2033 1 1 16.694 15.8383 0.700224 0.538604
7188 1 1 1.23417 17.6184 4.74378 1.25706
686 1 1 0.952608 17.3837 2.497 0.550294
7585 1 1 0.791489 18.4641 3.55344 1.75857
1140 1 1 4.20276 1.09205 2.35185 0.917242
1453 1 1 5.10764 16.9844 3.51498 1.25221
487 1 1 4.26514 15.3084 2.6141 3.02009
7754 1 1 3.31659 15.9929 4.04647 1.93311
605 1 1 7.74876 0.145476 1.17382 0.254171
7996 1 1 8.47861 18.7788 2.06486 0.53572
829 1 1 10.1604 17.9268 0.588161 1.7003
450 1 1 9.2622 17.2517 2.75781 0.228132
6027 1 1 11.6187 0.351469 4.48577 2.79414
7987 1 1 11.1572 18.7643 2.00699 0.676779
6673 1 1 11.7304 18.6749 1.1271 0.778388
1785 1 1 12.2571 16.9905 3.32907 0.264468
2106 1 1 14.513 0.743711 1.62569 0.818342
1110 1 1 13.0371 15.6943 1.99657 5.3226
1200 1 1 13.5852 17.788 3.03655 0.0114001
129 1 1 17.1759 0.184985 1.52511 1.51086
788 1 1 18.2655 17.0727 37.0137 0.176322
194 1 1 0.349213 18.7123 2.43018 2.29872
310 1 1 0.304402 0.537053 3.96758 1.63774
915 1 1 2.41389 1.13597 3.46814 0.200874
7122 1 1 2.77982 18.2476 4.41124 0.714333
175 1 1 5.38297 1.91829 2.44924 7.19734
1367 1 1 1.86843 0.569287 5.76532 1.94242
7123 1 1 5.52069 2.81339 3.71001 1.02946
1331 1 1 5.88912 1.01759 1.80521 0.303355
7762 1 1 6.39228 0.707352 5.26262 0.775276
293 1 1 7.62675 0.817329 4.77957 1.54544
7964 1 1 9.01602 0.792539 4.83802 0.49283
1658 1 1 8.80619 2.04241 4.04532 1.02954
1749 1 1 9.2144 0.912923 3.41566 0.0571577
671 1 1 11.2323 0.222082 3.52811 0.60867
1213 1 1 13.2152 2.35375 3.73289 1.05133
1704 1 1 12.4626 18.6422 3.80587 1.16
180 1 1 14.8228 18.4078 2.97747 1.78152
906 1 1 12.5614 18.6379 2.75805 0.120196
982 1 1 15.4975 0.553746 3.72336 0.389372
427 1 1 17.6591 2.07626 3.50511 0.988612
7914 1 1 18.3941 1.40637 3.936 1.44708
1205 1 1 16.2366 17.7001 3.34176 3.13985
1265 1 1 1.87501 1.57976 4.49385 2.64645
1714 1 1 1.39613 2.52626 2.31445 4.19907
1373 1 1 3.40607 2.8894 5.27191 1.25881
480 1 1 3.67168 0.794795 3.61309 0.187832
656 1 1 5.74455 4.15029 2.30722 0.790035
56 1 1 7.12671 2.96513 3.77438 0.743404
7300 1 1 6.47145 2.28422 3.08027 0.372833
7896 1 1 6.3969 2.87439 4.65275 0.181788
1543 1 1 6.15746 3.18854 2.77931 0.496282
6986 1 1 7.16428 2.75601 2.02298 6.39469
96 1 1 10.1932 1.8957 4.25692 0.5827
1852 1 1 7.48461 2.61272 4.9346 1.93691
385 1 1 8.61789 2.36728 1.81571 0.803424
94 1 1 9.68234 2.40049 2.17184 2.66229
824 1 1 9.96597 1.70485 2.79359 1.1864
7989 1 1 12.1608 2.08922 2.58724 0.156475
553 1 1 12.1526 2.75237 4.45802 0.593545
100 1 1 11.9653 1.79151 3.86479 1.51323
742 1 1 14.6316 3.13757 4.57121 0.429481
946 1 1 13.9107 1.51127 3.59051 0.6675
1413 1 1 15.3494 2.49704 3.92671 2.16553
314 1 1 18.4829 2.64706 2.36331 3.41584
874 1 1 18.3354 2.47995 4.27935 0.523281
1279 1 1 1.51055 3.71461 3.23598 0.302009
109 1 1 4.39506 3.68114 1.21178 2.07581
3 1 1 3.8088 4.51697 0.965246 0.17015
1202 1 1 5.1507 2.45901 4.77212 0.811267
527 1 1 5.71458 3.86816 4.07158 0.974762
1376 1 1 6.5163 4.09252 4.71526 0.404078
479 1 1 8.39124 5.97833 5.16424 0.781888
1378 1 1 9.1351 4.74314 3.81447 1.89437
2736 1 1 7.55428 4.01081 5.36866 0.977214
3337 1 1 10.4448 4.45465 2.06275 0.506269
7625 1 1 10.6345 5.37182 1.36625 3.63089
1664 1 1 12.6219 2.69639 1.47403 1.03153
685 1 1 12.4604 4.47641 0.179971 4.07694
7250 1 1 13.9084 3.76714 4.06708 4.67641
602 1 1 16.1508 4.04907 3.19702 0.265184
7950 1 1 16.9975 1.08987 4.84834 0.343818
1239 1 1 17.7882 3.229 3.57708 0.953074
155 1 1 0.637655 3.21625 3.88615 1.39382
6152 1 1 1.45494 1.34504 3.00931 1.00521
7366 1 1 18.6362 3.83402 4.59149 0.396155
7841 1 1 17.8931 3.33591 1.88903 1.10654
1596 1 1 2.28069 7.72821 2.42646 1.20482
1717 1 1 4.32009 5.09255 1.91865 3.02056
158 1 1 3.38745 6.86108 2.91774 0.757147
1883 1 1 5.39113 6.2672 3.78259 0.806569
580 1 1 4.38093 3.70653 2.17034 2.10329
5739 1 1 9.20089 5.65575 3.12509 1.14747
890 1 1 9.52132 3.51001 3.63009 2.7085
2103 1 1 10.3662 4.55086 4.18297 2.18141
140 1 1 11.9373 5.06826 4.04313 1.65783
281 1 1 11.8185 3.86384 4.31019 0.496128
1262 1 1 12.1427 6.82449 5.58658 0.38861
446 1 1 12.2905 4.75011 5.26771 4.77966
2075 1 1 14.5493 5.54639 4.66881 0.339193
581 1 1 14.4201 5.34352 2.69827 1.11021
7468 1 1 15.098 3.8744 3.64302 0.561328
2432 1 1 17.4202 4.43877 4.74086 0.749025
1336 1 1 16.1685 4.11438 5.17103 1.4412
148 1 1 17.1117 4.51613 3.41912 1.11205
190 1 1 0.217086 4.25566 3.19869 2.00633
3586 1 1 0.190732 5.36136 3.74353 1.66537
7683 1 1 2.28676 5.78975 4.3861 1.64386
238 1 1 3.28474 6.66797 4.56803 0.528234
729 1 1 4.67496 5.96536 5.23573 3.99618
1754 1 1 3.89251 5.94944 4.08928 0.580826
440 1 1 7.74119 6.68756 4.6285 1.30013
2397 1 1 7.08242 4.94882 2.84022 1.36948
1405 1 1 6.82359 7.15713 3.87331 2.42636
1194 1 1 8.99077 6.70908 2.75645 1.19585
1466 1 1 8.59414 6.08726 3.9543 0.754907
177 1 1 10.7737 4.44911 3.16748 0.479804
575 1 1 10.3791 5.46605 3.62209 1.39482
488 1 1 11.9566 6.5381 3.8855 0.418993
1759 1 1 11.1174 6.75014 4.6917 0.202972
6463 1 1 12.5165 7.93206 2.07203 0.769457
591 1 1 15.7339 5.20478 5.00889 1.97774
7273 1 1 16.5272 7.51348 4.58251 0.57347
3565 1 1 16.3667 5.2066 3.9254 3.26231
444 1 1 0.12995 6.62137 3.315 1.16075
481 1 1 1.59069 6.28047 3.43615 0.962586
1942 1 1 18.5234 9.65409 2.73419 0.665708
1562 1 1 1.1872 8.27089 3.67334 2.66589
134 1 1 2.28631 7.07505 3.86131 3.68657
875 1 1 1.22415 7.0689 3.97207 0.294092
983 1 1 3.60209 7.7169 4.45502 0.951825
131 1 1 2.08819 8.51219 3.07711 1.48003
7862 1 1 4.67619 7.03785 4.87464 1.70495
541 1 1 8.19895 7.50722 4.16535 0.126452
1802 1 1 9.04054 8.77713 5.30603 0.622177
557 1 1 10.0366 7.52436 4.87443 1.24707
1069 1 1 11.5901 6.54069 2.82444 1.88816
1781 1 1 9.07528 7.87138 4.73594 2.12739
1422 1 1 13.4035 4.91266 2.68238 1.07171
1833 1 1 14.6356 8.31682 2.13427 0.689391
960 1 1 16.8852 8.99313 2.88428 1.86153
305 1 1 17.3042 8.23408 5.06406 1.12457
1183 1 1 15.8166 5.85255 2.14688 2.90693
1000 1 1 18.0147 7.95308 4.37089 1.09892
1709 1 1 18.4059 6.88716 4.46447 0.612433
2357 1 1 2.34786 10.5527 3.77917 0.126554
2110 1 1 1.46977 9.45676 3.39274 2.61143
1399 1 1 0.77797 7.63349 4.95366 0.367907
1113 1 1 0.694951 10.0881 2.77883 5.49973
7845 1 1 0.496555 10.5854 0.501526 2.21909
114 1 1 1.95189 10.058 2.50775 0.502836
1917 1 1 4.11728 8.28672 3.68197 4.3032
1280 1 1 2.70832 9.20179 2.15252 5.71599
478 1 1 5.41591 10.2202 4.2264 2.31771
1415 1 1 6.93989 9.26091 4.01974 1.59969
378 1 1 9.03675 8.75634 4.33751 0.591014
374 1 1 9.42805 10.242 3.27448 1.57574
7531 1 1 9.20089 9.81374 4.98301 1.68886
1460 1 1 12.0088 8.43289 3.55068 2.06357
641 1 1 14.0825 9.9369 4.80825 0.979288
6875 1 1 15.8297 10.7414 2.8977 2.5754
1870 1 1 18.7309 8.90457 3.94525 0.446924
6719 1 1 18.485 10.8012 4.15112 0.89694
1276 1 1 2.41231 11.9207 4.57984 1.51682
336 1 1 18.3051 11.5174 3.18084 1.87553
916 1 1 2.35879 9.39648 5.0047 3.0116
1863 1 1 2.36724 10.6216 5.02609 0.323569
2311 1 1 3.24428 9.92214 3.8345 1.72291
1728 1 1 3.55443 11.9724 3.9604 1.97656
408 1 1 4.31683 13.7403 4.44249 0.858975
1417 1 1 4.29229 10.377 4.20054 1.9867
365 1 1 6.06239 12.3394 1.55313 1.28962
1465 1 1 7.01123 8.29855 3.79456 1.44615
1001 1 1 8.22087 10.4174 1.57601 0.289394
1046 1 1 7.39683 10.4871 3.33032 0.0917583
277 1 1 11.3066 9.98897 2.24691 2.19679
64 1 1 9.09779 11.6412 3.40056 1.46548
241 1 1 9.75025 11.2145 5.02178 2.08739
1017 1 1 12.1231 9.4776 4.33086 4.72795
7573 1 1 10.1284 9.08199 3.58042 1.53661
7739 1 1 11.7275 7.66031 4.38418 2.31697
433 1 1 12.3332 12.3656 1.83205 1.7213
2062 1 1 11.7574 11.3837 4.36914 1.38871
1706 1 1 14.3502 10.8562 5.52121 0.79432
7444 1 1 12.4299 9.49601 3.23625 1.83978
386 1 1 14.6224 11.7649 3.01846 1.42369
1533 1 1 15.3188 10.2625 5.56712 0.383522
683 1 1 17.228 11.1008 1.95071 0.289541
1965 1 1 16.0607 9.16183 3.88973 2.41751
1349 1 1 17.4379 10.7595 2.88203 1.00311
7350 1 1 1.54755 11.1767 4.19976 3.52244
7927 1 1 3.44635 11.3397 5.99005 1.89032
243 1 1 3.24716 11.0071 4.16503 1.81306
863 1 1 1.19871 9.24318 1.65937 1.6565
1958 1 1 5.75541 14.0086 4.61429 1.32168
344 1 1 5.39543 11.4972 3.90643 1.48556
216 1 1 6.80621 10.2428 4.21626 0.162938
1163 1 1 7.55625 11.4543 3.3705 1.54233
699 1 1 7.18694 11.813 2.51162 0.196418
823 1 1 10.1524 14.0263 4.90063 7.37954
1545 1 1 11.5605 10.8333 5.36967 3.74908
1165 1 1 10.4639 11.5176 2.90841 0.866854
7984 1 1 12.4213 11.7945 3.64055 0.865215
6590 1 1 12.4997 11.3842 2.6122 0.260005
6750 1 1 13.0245 11.883 1.15904 2.49795
1187 1 1 12.9247 13.6142 2.72206 0.309721
1676 1 1 13.2236 14.4789 3.29457 1.87857
1087 1 1 15.9094 9.99571 4.51193 1.84186
1351 1 1 17.2632 11.5537 5.47592 1.37157
1528 1 1 18.6618 12.3711 1.1287 1.29411
1360 1 1 1.88062 12.6736 3.15348 0.385872
1116 1 1 2.4328 13.8036 4.56587 1.66912
6720 1 1 4.01905 13.1273 5.23982 4.76237
6563 1 1 1.77765 12.8989 4.4052 0.343559
1082 1 1 3.45427 12.1071 5.33081 1.41384
1526 1 1 6.27979 14.6446 5.27068 1.10546
7376 1 1 5.47469 12.5377 4.50369 2.49896
1448 1 1 5.89062 15.0975 2.90051 1.31498
1210 1 1 9.0827 14.0547 2.86229 1.11016
6683 1 1 9.14854 13.8036 5.92734 0.115778
7464 1 1 8.17594 11.7905 5.97448 0.813941
7990 1 1 8.97961 15.0742 4.71931 1.13578
221 1 1 11.4789 11.2113 2.33388 0.240037
1590 1 1 14.1921 14.5331 4.03461 0.429676
1147 1 1 12.3275 13.6865 3.95415 2.77261
7993 1 1 15.5824 13.228 3.15583 4.67665
818 1 1 16.1935 12.8169 2.34836 3.11038
669 1 1 16.9652 12.1957 2.70105 0.828708
2798 1 1 15.7432 12.2074 3.78476 0.229862
259 1 1 0.0496438 13.0388 2.46469 1.43553
1971 1 1 0.0766067 13.49 3.65763 0.0630236
240 1 1 16.4299 11.3158 3.50749 3.77775
608 1 1 0.895153 16.2398 4.78779 2.51814
126 1 1 18.7146 16.9768 4.04576 1.15035
1282 1 1 2.21943 15.1838 2.06463 1.7414
2755 1 1 2.6812 14.6105 5.10044 1.89256
795 1 1 3.35411 15.0086 1.90116 0.365536
840 1 1 5.00942 13.7093 2.66694 4.37955
834 1 1 5.55338 14.5162 2.1121 0.592898
1337 1 1 4.2701 14.7131 3.46421 0.747278
684 1 1 5.99865 15.4463 1.89357 1.72033
504 1 1 7.72669 15.8075 2.91704 0.973511
902 1 1 5.67148 16.1844 2.91597 2.31942
391 1 1 7.54009 16.3313 4.88373 0.716441
452 1 1 7.71683 14.4826 3.40876 0.646659