ITEM: TIMESTEP
300
ITEM: NUMBER OF ATOMS
8000
ITEM: BOX BOUNDS pp pp pp
0.0000000000000000e+00 1.8820720577620570e+01
0.0000000000000000e+00 1.8820720577620570e+01
0.0000000000000000e+00 3.7641441155241139e+01
ITEM: ATOMS id mass type x y z v_temp
1634 1 1 18.0965 0.994433 2.27219 5.64122
1142 1 1 18.0458 0.45835 0.926793 1.05304
7604 1 1 0.982888 18.2895 1.22716 1.89133
7210 1 1 3.10365 0.0162657 1.06799 3.81582
318 1 1 2.44393 0.501626 1.53528 1.2003
287 1 1 5.77204 0.941931 36.8871 1.24685
7226 1 1 4.01242 0.717397 0.761431 2.6152
6076 1 1 6.36302 2.27357 0.829648 0.998069
7503 1 1 5.1844 1.87179 0.980834 1.1425
6017 1 1 9.39754 1.9588 0.364837 4.11518
7535 1 1 8.50445 0.575068 0.405805 1.3683
2020 1 1 10.7358 0.531281 0.612027 0.993867
696 1 1 12.741 0.938221 37.5839 2.1475
383 1 1 13.5723 1.30603 2.55866 3.23013
640 1 1 12.46 1.21105 1.93376 5.44042
7930 1 1 15.3291 18.1353 0.485315 1.04291
554 1 1 17.3058 18.0869 0.15621 0.398642
7471 1 1 17.9134 1.68963 36.6112 0.838849
1198 1 1 18.5689 1.26118 1.46554 0.0569554
576 1 1 0.564763 1.58009 0.590253 2.24273
115 1 1 18.3935 0.817106 37.4078 1.36962
816 1 1 2.54993 3.14843 1.49525 0.70072
6995 1 1 4.30279 2.47694 1.46277 0.940725
2126 1 1 5.30612 2.30898 1.83828 1.5296
172 1 1 4.8019 0.997625 37.6301 1.06421
5756 1 1 7.04671 2.18576 36.9559 0.805768
6659 1 1 7.64396 2.23853 2.49222 0.591438
1206 1 1 9.05284 0.540124 2.49758 2.87873
7660 1 1 6.10175 3.41616 36.9744 0.577068
2305 1 1 10.5678 2.60765 37.2313 0.310006
7725 1 1 11.2272 2.56157 1.15825 0.27064
6691 1 1 11.6091 2.85868 37.5924 1.87836
1308 1 1 12.6989 2.39515 1.48527 0.336493
1269 1 1 15.1547 2.07148 1.83179 0.158762
6873 1 1 12.1789 2.1999 0.598099 1.36477
7830 1 1 13.4927 0.541075 1.44378 0.736935
7423 1 1 13.8808 2.17225 1.60278 3.99097
1344 1 1 14.9427 2.74679 0.36401 0.549102
7998 1 1 17.1593 2.66531 2.09633 1.42316
18 1 1 18.3108 2.41696 1.00026 2.1039
47 1 1 18.7219 3.58748 1.09735 0.457494
366 1 1 0.471411 4.82685 0.615239 0.188454
1481 1 1 1.70499 1.12154 1.63262 0.263356
7456 1 1 2.68806 4.91466 1.60816 0.703707
7697 1 1 1.43684 3.3983 1.34662 1.71065
402 1 1 3.67753 4.25452 37.472 0.456298
879 1 1 4.82602 2.47418 0.357083 0.77972
7667 1 1 6.74633 4.44876 36.5819 0.144726
464 1 1 7.79024 4.24491 0.407702 1.34247
543 1 1 9.89342 5.45328 37.4955 0.240191
2348 1 1 9.60352 4.70471 36.7442 5.25019
7010 1 1 13.834 3.16579 1.027 2.1556
73 1 1 11.1151 4.79926 0.117506 1.39822
151 1 1 16.821 4.02198 37.2629 1.80894
1315 1 1 14.8218 2.17039 36.8008 2.35533
6648 1 1 0.826157 2.24895 1.54685 0.342315
762 1 1 17.6821 5.52761 0.290749 2.35365
791 1 1 0.404304 4.83055 35.7336 1.67251
7980 1 1 0.588269 4.30402 2.1835 2.35914
802 1 1 1.50552 4.50359 1.49597 1.14467
7879 1 1 4.2601 5.31253 0.296199 0.443376
7631 1 1 4.56728 3.48928 37.6288 1.69469
548 1 1 4.94482 6.13008 1.96728 2.03822
217 1 1 6.66138 4.65307 0.0884041 0.590737
1076 1 1 7.07698 4.89582 0.901715 2.2326
945 1 1 7.0361 6.38944 0.286784 5.05507
697 1 1 9.18924 6.80377 36.8153 0.774022
1330 1 1 11.1655 6.74068 37.3267 1.44036
1380 1 1 14.6102 4.87499 0.0415915 2.2272
7911 1 1 15.2365 4.34055 0.630488 2.14881
2160 1 1 16.3227 6.22616 36.7755 0.180877
7937 1 1 17.0467 6.64831 0.90071 1.12733
1713 1 1 17.2361 5.02686 37.0629 3.64025
924 1 1 0.442352 8.80361 1.75576 0.706866
34 1 1 18.5066 6.21328 0.981581 0.0273845
6762 1 1 1.29873 8.03052 1.07168 1.90223
1158 1 1 1.56513 5.8248 0.47492 0.197546
997 1 1 3.96936 6.48626 0.688551 0.376018
645 1 1 4.04555 6.4382 37.2159 0.977408
930 1 1 4.95458 7.08951 37.2443 0.539636
568 1 1 6.74228 7.33414 1.93864 0.18384
7748 1 1 7.60651 7.32005 1.20564 0.156626
7921 1 1 7.20734 6.19952 1.68689 1.51621
5854 1 1 7.36581 6.16243 35.7506 1.74936
6669 1 1 12.6474 7.85851 0.777953 0.174378
6497 1 1 11.4959 7.45407 0.38246 2.65301
7420 1 1 9.94991 7.28436 0.506453 0.474685
214 1 1 12.6649 6.68686 0.810377 0.438505
721 1 1 12.5265 9.21339 36.6217 9.30281
181 1 1 11.9029 5.79557 0.384343 1.4657
193 1 1 12.7521 5.18382 1.0219 2.46039
7972 1 1 16.1587 7.18733 0.995455 2.61781
1359 1 1 15.3623 5.39013 0.601626 0.613225
7641 1 1 17.0378 7.71354 1.78623 2.64092
1318 1 1 0.8967 7.88182 2.33289 3.26701
6533 1 1 17.8532 8.53744 2.11936 0.849877
7351 1 1 1.93612 8.0204 0.268959 2.00312
7657 1 1 0.674518 9.35134 36.9721 1.29418
925 1 1 3.57989 7.86452 36.7744 2.30658
6235 1 1 5.73763 8.0174 1.18698 1.27122
331 1 1 4.91293 8.07233 0.0947069 1.37817
7958 1 1 7.34859 8.38084 0.379528 0.076604
178 1 1 6.08355 8.92414 0.656488 2.93425
7335 1 1 8.42663 8.00355 1.25984 0.994659
5813 1 1 6.734 8.97624 37.3576 2.96181
6538 1 1 8.77955 6.99568 0.881599 0.16788
461 1 1 12.6585 10.1554 0.00725769 2.02527
7348 1 1 15.0916 7.5276 0.792702 0.484416
6705 1 1 15.9688 8.3314 0.680199 0.908309
498 1 1 14.4349 7.31153 2.84541 3.12717
7851 1 1 15.9415 7.76837 2.05548 2.34793
7800 1 1 16.9316 8.89626 0.982087 0.373086
230 1 1 18.186 7.17815 1.56878 1.37122
7734 1 1 18.5301 9.1238 37.1714 2.28462
1637 1 1 1.48434 8.98841 1.50102 1.7447
6987 1 1 6.13225 9.97478 1.37461 0.260505
7791 1 1 5.35861 8.36301 2.55313 1.1637
5753 1 1 6.91521 9.25311 1.27656 2.37143
6566 1 1 5.72631 10.5285 0.667472 1.02087
1790 1 1 7.30619 11.0421 0.929562 0.313915
3250 1 1 7.5372 11.4155 0.0918062 1.54142
1038 1 1 8.51254 8.32709 37.1273 1.61123
570 1 1 11.6063 9.21994 37.4739 1.56107
7943 1 1 11.7193 8.27257 1.2803 1.86944
2177 1 1 10.3033 8.89271 0.254785 3.51026
86 1 1 13.8701 10.5004 37.4908 1.49512
7979 1 1 13.4945 8.17083 3.05051 3.48495
79 1 1 15.5535 10.1441 0.356979 0.65851
6241 1 1 15.6937 9.31885 1.08906 7.8682
648 1 1 14.481 9.00296 1.28418 1.40485
736 1 1 16.5206 9.83888 0.90694 1.12728
1036 1 1 17.8264 10.0226 37.504 2.22552
884 1 1 18.3044 9.08688 0.680214 0.50199
340 1 1 2.17745 12.1052 37.5835 1.76882
1350 1 1 1.30506 11.7063 1.01257 1.88868
6578 1 1 4.05243 8.8611 1.77372 2.19262
1172 1 1 3.04265 11.644 1.14524 0.419578
639 1 1 4.36028 10.5377 0.49901 3.12324
7891 1 1 7.9649 13.2103 1.26088 3.66219
7002 1 1 11.3099 9.48488 1.39817 0.198698
1542 1 1 8.86086 10.9331 0.483007 1.49801
6536 1 1 10.042 10.9719 0.554618 3.82062
7156 1 1 13.3029 11.0978 1.24266 1.80039
7452 1 1 14.2027 11.6008 1.33249 1.63187
7635 1 1 14.655 10.7793 0.67488 2.30445
379 1 1 16.6284 11.5919 0.255748 1.95999
1074 1 1 17.6639 11.3833 0.2709 0.249687
7836 1 1 1.05397 12.0156 37.2237 1.78604
7863 1 1 2.88348 13.4866 1.79281 1.9768
7446 1 1 17.8522 12.3225 37.5365 0.0123217
6646 1 1 2.31055 12.373 1.28571 0.731412
8000 1 1 4.70747 13.0004 1.52607 0.889637
7056 1 1 3.96594 12.5311 0.955485 0.942264
7621 1 1 4.70687 11.6768 1.58751 0.949289
6252 1 1 5.62593 11.8642 0.793427 2.73234
532 1 1 6.07617 10.3794 36.5609 0.378801
7065 1 1 6.26023 11.3632 37.5901 0.911743
7457 1 1 9.60889 12.0037 1.39589 1.37414
1178 1 1 10.1615 13.3946 1.66832 1.02197
7704 1 1 10.5665 12.6571 2.80498 0.217312
6699 1 1 13.4098 12.6281 1.69153 1.35979
1976 1 1 13.9915 11.5906 0.234585 1.68173
57 1 1 15.5902 12.4404 0.0985618 2.9009
234 1 1 16.2497 12.8349 1.46351 0.422979
7189 1 1 16.3793 12.266 36.6965 0.610807
7847 1 1 3.01687 14.1741 0.527104 0.754188
6243 1 1 4.12373 13.849 0.602884 1.13611
7051 1 1 3.79385 13.3559 1.82562 2.69418
7610 1 1 5.29732 14.6767 1.14282 2.58782
1081 1 1 8.40117 12.2162 0.417059 1.24668
1144 1 1 6.6911 12.8017 1.9566 0.337417
6898 1 1 6.90997 13.6105 0.834213 0.0702522
67 1 1 8.83465 12.6288 1.27977 0.455496
38 1 1 10.3205 13.083 0.478781 0.246214
377 1 1 13.8888 13.4299 1.26102 0.130437
501 1 1 14.6178 12.68 0.23652 0.0406851
7826 1 1 17.4302 12.9855 0.866258 0.310065
7483 1 1 15.5977 13.3416 0.829978 0.508305
7052 1 1 18.3336 14.7976 1.94542 0.877479
579 1 1 17.5855 13.9429 1.30565 1.42151
634 1 1 0.834395 13.2183 0.348605 0.691861
962 1 1 2.69774 14.3037 2.50689 2.45313
704 1 1 2.03147 15.9709 0.0655649 4.50726
1529 1 1 3.87629 15.1342 1.14213 0.628398
6321 1 1 5.10988 15.6593 0.674219 1.31106
203 1 1 4.61132 14.0867 1.55067 0.794038
154 1 1 5.81383 13.6839 37.1945 2.40145
734 1 1 7.52588 15.644 0.377691 1.22158
6379 1 1 7.56539 14.6895 1.67076 1.63461
1908 1 1 11.1624 15.2364 0.463278 0.531477
7569 1 1 8.76049 15.2544 0.826601 0.1311
227 1 1 10.6652 15.2751 1.82738 0.76726
1134 1 1 11.1749 16.2742 1.20111 2.1664
22 1 1 11.7575 15.7921 2.05032 1.91942
1143 1 1 14.6297 14.3589 2.12811 0.777883
1474 1 1 15.8656 14.4529 0.821204 0.675368
7548 1 1 16.4807 13.9912 1.47024 2.3257
668 1 1 16.2634 14.9182 37.5497 3.73443
559 1 1 0.867947 15.3196 0.946651 0.272219
2134 1 1 2.11939 17.9806 37.274 0.818727
311 1 1 2.03022 17.1705 0.267179 2.03224
7934 1 1 2.90552 16.4327 1.34073 3.30653
439 1 1 3.02797 16.2648 2.32989 0.460277
7767 1 1 6.42781 15.9847 36.2921 2.38623
399 1 1 4.10477 17.1154 1.29366 0.504305
7214 1 1 6.38466 15.1467 0.589719 1.24917
7180 1 1 6.75952 15.0609 37.2083 0.741525
6835 1 1 5.53152 18.464 1.58558 1.72194
7206 1 1 8.0805 17.2855 0.248418 2.29051
7616 1 1 9.7669 18.5202 36.615 2.28757
841 1 1 9.89075 17.624 0.392356 1.99116
7736 1 1 9.49526 16.5584 36.9206 2.69534
7779 1 1 11.2748 17.7182 0.681636 0.564206
2343 1 1 12.3886 16.1833 36.9762 1.27942
1916 1 1 13.5215 17.6816 37.6308 3.26935
6913 1 1 15.1492 15.679 2.33867 2.28061
2038 1 1 15.8473 16.5422 0.250259 2.44919
7855 1 1 16.9537 14.5116 2.25681 1.12531
1042 1 1 17.1734 16.6632 0.305047 2.33613
7999 1 1 18.0987 16.3648 37.4058 0.354649
1569 1 1 1.03868 17.2857 0.00380002 2.73656
7265 1 1 3.15513 17.4664 1.66002 0.735573
332 1 1 2.87431 17.97 0.529595 0.866401
6777 1 1 2.19752 18.4051 1.85417 0.209675
6866 1 1 6.48095 0.0795252 1.95556 0.86371
7267 1 1 5.39276 0.444745 0.590658 1.37718
1729 1 1 6.72078 17.5318 2.19 0.0887039
43 1 1 6.54986 18.621 0.794739 0.991316
7581 1 1 7.51665 17.9639 36.774 0.647303
7678 1 1 7.7838 18.7084 2.20269 2.39671
1895 1 1 5.96379 17.2324 0.437678 1.08675
708 1 1 9.70124 18.5075 1.03195 1.94847
7961 1 1 9.95817 17.3894 1.7827 0.880292
7705 1 1 13.1204 17.013 2.3032 1.20811
356 1 1 12.6502 18.0022 0.751219 2.58012
6636 1 1 14.7463 17.4494 37.1039 0.928544
343 1 1 13.5931 17.0436 1.07406 2.14996
6723 1 1 16.2076 16.921 1.48008 0.105203
7088 1 1 18.479 17.4617 36.6652 0.607682
3499 1 1 16.8707 1.12347 0.97557 0.432122
7261 1 1 18.3946 17.8877 1.24415 0.45081
489 1 1 2.71462 0.67476 3.47764 2.3977
1168 1 1 4.31604 0.803488 2.80747 1.76054
445 1 1 5.21205 16.5285 1.8656 0.714093
1930 1 1 3.50812 17.8734 4.29925 3.66781
1257 1 1 4.84508 18.1055 3.75396 3.25643
497 1 1 5.7213 0.626842 2.92912 0.601009
89 1 1 8.38468 0.529599 3.33614 1.15913
1208 1 1 6.73581 1.08666 2.51255 0.944984
7785 1 1 7.88375 1.10771 2.50744 1.50394
505 1 1 11.0877 1.58643 2.26275 0.980157
7745 1 1 10.2451 0.263807 2.85226 1.88208
1339 1 1 10.0277 2.01516 1.89382 0.478717
677 1 1 11.6405 1.70722 1.31167 1.60126
700 1 1 13.0415 0.379905 2.98906 1.28788
31 1 1 16.3412 1.85948 1.75119 0.350542
7478 1 1 15.4341 18.2864 2.13026 0.460261
787 1 1 15.6066 0.904137 1.49993 1.86842
351 1 1 17.3904 0.157163 2.97703 1.08167
7647 1 1 17.6883 18.7964 1.91853 1.92369
1718 1 1 0.314907 1.80994 3.15759 0.360665
1766 1 1 2.55709 1.88585 2.48858 3.7919
547 1 1 2.90647 1.60388 1.60546 0.317056
936 1 1 3.77845 0.931257 1.91486 2.01138
2026 1 1 5.06213 1.70246 3.00172 0.247181
569 1 1 3.87226 1.90629 0.67195 2.06424
566 1 1 6.98409 2.06152 1.73191 1.20902
633 1 1 7.62901 0.521835 0.98135 2.02142
886 1 1 8.85985 2.74654 3.41214 0.354851
593 1 1 10.2399 2.64963 0.895133 2.31562
173 1 1 8.93286 0.947053 1.32215 1.15096
7332 1 1 8.52712 2.93798 2.4931 1.10791
21 1 1 11.7506 2.37982 2.16066 0.70248
7155 1 1 12.9198 2.77248 2.57638 0.0893955
7669 1 1 16.1028 1.98757 2.90304 0.581665
1020 1 1 14.2817 2.10199 3.01199 0.916307
859 1 1 15.5989 0.442341 2.69473 0.963198
7549 1 1 17.0053 2.0959 3.30893 0.490748
1348 1 1 17.9495 2.82518 2.77692 2.68281
7440 1 1 0.0296346 1.97077 2.05843 0.592696
7903 1 1 0.01554 3.30702 2.03732 0.841568
7795 1 1 1.84493 6.92944 1.94489 0.624641
7284 1 1 4.76869 3.30247 3.48103 0.800098
6767 1 1 4.97027 4.58695 2.15112 1.99678
835 1 1 5.64095 3.08722 0.581847 2.66376
2824 1 1 4.5881 4.48742 1.12961 1.73211
7718 1 1 5.44444 3.44695 2.11256 2.52509
7653 1 1 6.67204 3.86632 0.916609 1.21972
7215 1 1 5.90667 4.22255 1.95026 0.717466
623 1 1 7.15472 4.19932 1.71882 0.85986
1416 1 1 7.72173 2.56331 0.745329 1.84069
7666 1 1 9.58121 3.2819 2.88436 0.00701971
492 1 1 10.4919 3.80187 2.55035 2.86059
7387 1 1 11.4442 4.3095 1.5445 1.60128
6541 1 1 14.5885 2.9117 2.55446 1.21223
7246 1 1 15.642 2.91999 2.50557 1.22748
7938 1 1 16.5882 3.17443 2.88954 6.63601
651 1 1 16.1914 3.67451 1.15812 1.20158
7844 1 1 16.4121 4.75348 0.531645 2.12462
6975 1 1 1.06076 6.63822 2.80552 0.0484125
5621 1 1 1.391 4.79053 2.55091 0.590238
6396 1 1 1.80247 5.86165 2.24682 6.70421
7659 1 1 2.98804 6.37101 1.92778 0.737614
1237 1 1 3.52217 4.4866 1.56465 4.93235
15 1 1 4.35859 5.41386 2.56167 1.61697
7251 1 1 5.68727 5.33313 1.94933 1.01187
7924 1 1 5.38213 5.26777 3.60115 0.117959
661 1 1 6.77942 5.17681 3.326 0.675357
7532 1 1 6.57349 4.94979 2.19577 0.416605
585 1 1 7.8869 3.87564 2.84778 0.450991
934 1 1 8.85227 4.04996 3.0162 0.629574
6703 1 1 9.07167 4.70816 2.13464 3.83324
1369 1 1 10.4961 6.8047 1.27861 0.659325
91 1 1 11.6594 4.81464 2.65634 2.12883
528 1 1 10.2058 5.55408 2.55772 3.14444
985 1 1 11.3376 5.81647 1.99305 0.957382
387 1 1 14.1429 4.01255 2.34199 0.12711
1473 1 1 15.2845 5.0003 2.15526 1.2239
271 1 1 14.228 4.93573 2.02118 4.18235
511 1 1 14.9506 3.72861 1.45552 0.699942
966 1 1 17.5845 4.03416 0.850987 2.05983
914 1 1 16.0253 3.93436 2.193 3.42342
7432 1 1 18.27 4.99073 1.20952 0.864285
7966 1 1 2.6806 7.19824 2.69692 2.05822
206 1 1 17.5203 5.87139 2.16545 0.867141
7967 1 1 3.00768 8.05526 0.501668 2.99975
442 1 1 3.56809 7.82098 3.10136 4.35393
7944 1 1 3.55803 7.80417 1.36518 1.39175
7803 1 1 6.00658 6.9462 2.71811 0.848688
1177 1 1 6.40962 6.17679 3.50162 0.895285
6136 1 1 8.1311 6.88982 2.32215 3.26149
7663 1 1 8.80549 5.54835 0.223269 0.0299559
7138 1 1 9.08194 7.38609 2.09131 2.4295
7904 1 1 8.00446 6.34635 0.81114 0.653667
1051 1 1 7.93059 5.03325 3.36214 1.95223
7422 1 1 13.5042 6.5498 3.67276 3.08723
469 1 1 11.6942 5.80523 3.20385 0.42144
7611 1 1 12.7759 5.2541 3.12224 0.695986
188 1 1 11.4638 6.91482 1.57964 1.34184
1329 1 1 12.6516 4.35273 1.76403 1.11324
5812 1 1 15.1441 6.85796 3.47536 2.56378
35 1 1 15.144 6.40638 0.800604 4.59671
1377 1 1 13.5024 4.51194 2.95242 0.772508
2197 1 1 16.2019 5.11569 3.03571 0.621883
7544 1 1 16.61 6.10172 3.63825 0.813331
223 1 1 15.6917 6.00999 2.45844 0.653576
72 1 1 18.7905 6.47749 2.05115 3.21691
75 1 1 0.0204027 5.17057 3.28418 1.79786
2320 1 1 18.3726 7.1236 2.70781 1.54541
5817 1 1 4.01888 6.73458 2.02954 3.41898
7322 1 1 7.03779 8.37631 1.75298 1.34015
626 1 1 6.24203 8.13439 2.83526 0.290538
7738 1 1 5.62543 8.26032 3.60694 1.13006
1648 1 1 7.91227 9.04771 2.61009 1.65749
571 1 1 10.1344 8.45451 2.61465 1.79894
5690 1 1 10.8747 7.77965 1.27701 3.5132
2244 1 1 11.8633 10.3148 1.25616 5.43556
122 1 1 9.79437 6.75133 2.14192 2.00578
1441 1 1 14.0496 7.47024 3.92454 1.12815
276 1 1 14.5736 6.17318 2.17712 1.12547
108 1 1 16.7569 8.6755 2.26909 1.0945
186 1 1 18.3972 9.48961 3.37363 1.1581
1314 1 1 1.37121 9.52154 0.72889 3.1372
1005 1 1 3.75684 9.7331 2.31279 0.888856
7326 1 1 5.78541 8.84706 1.6102 1.13263
1681 1 1 5.17357 9.74345 1.86556 0.354904
6874 1 1 6.63438 10.2238 0.145168 1.62105
1301 1 1 6.15709 9.81621 3.27088 0.743084
10 1 1 5.43827 10.8174 2.07802 1.97944
7459 1 1 7.9932 9.05206 1.12258 1.82604
765 1 1 9.27733 10.0613 3.06619 0.0342994
1475 1 1 7.92623 10.069 0.724442 4.85954
672 1 1 11.1024 8.66005 2.10328 1.07069
6896 1 1 10.6998 11.1447 2.49404 1.14695
7538 1 1 11.049 10.1277 3.02021 0.398281
1193 1 1 12.9258 5.40142 2.08003 1.07015
7185 1 1 14.808 8.27599 2.2269 1.15368
1906 1 1 13.0058 9.32536 2.4169 2.6203
1426 1 1 12.3257 8.64358 3.94777 1.67013
1478 1 1 15.7119 9.5754 2.84234 2.30171
6561 1 1 18.2782 10.4342 2.46661 1.13853
84 1 1 17.5425 9.46863 2.2893 0.916097
1093 1 1 1.51778 11.7232 2.12516 5.85316
300 1 1 0.724856 10.5222 2.51197 0.920365
877 1 1 18.0983 10.4314 0.811587 2.82409
970 1 1 5.25667 11.1587 3.27122 2.13184
7482 1 1 2.93765 9.95257 3.57165 0.54318
7805 1 1 2.55461 11.4783 2.19613 2.34838
1211 1 1 6.7936 10.8143 2.18445 1.28288
290 1 1 6.12466 12.0984 2.60709 1.20184
7643 1 1 7.45883 9.76107 1.84879 0.71181
691 1 1 7.43886 7.96641 3.3279 3.34209
955 1 1 9.20665 11.0031 1.55033 2.28709
1224 1 1 11.2809 11.1516 0.801782 3.59155
232 1 1 12.5254 12.0682 2.07929 1.50502
7983 1 1 13.6143 10.599 3.03238 3.58127
296 1 1 14.397 9.99846 1.44587 0.620974
610 1 1 12.4123 10.2157 2.64372 0.72315
2017 1 1 14.7425 10.3895 2.63542 0.495086
712 1 1 16.6441 10.8858 1.30427 0.704158
7470 1 1 16.6063 11.9672 1.96963 3.88732
146 1 1 18.3662 9.61038 1.55834 2.99527
2662 1 1 18.0268 11.8378 1.06404 0.361512
1234 1 1 17.7603 12.207 2.65888 1.89271
7474 1 1 2.27007 12.2193 2.71589 1.19571
967 1 1 1.38138 11.823 3.29997 2.39765
7060 1 1 3.56702 10.7948 2.33303 3.28893
369 1 1 3.0874 10.9369 3.26131 0.482776
7249 1 1 3.1664 12.0556 3.28921 0.529923
325 1 1 6.55973 12.1141 1.1057 1.33296
773 1 1 4.18485 12.3839 2.48099 2.85946
453 1 1 6.78406 12.2563 3.516 6.64179
627 1 1 9.17184 12.3422 2.58292 2.26767
7004 1 1 9.83618 12.9445 3.68966 2.21578
1103 1 1 11.262 13.848 2.46712 2.25519
738 1 1 13.6004 11.6461 2.28399 1.21746
286 1 1 12.4659 12.7291 1.35235 1.24624
574 1 1 15.1301 12.6514 1.72681 0.453235
1107 1 1 12.1346 11.3213 1.52659 1.27929
7512 1 1 15.5678 11.7363 0.880878 0.882305
973 1 1 15.6522 11.131 2.43595 0.670643
7772 1 1 0.989044 12.9885 1.66502 0.0467399
163 1 1 3.31846 13.5126 3.46394 1.28028
1486 1 1 4.27567 14.2643 3.77084 1.14872
7085 1 1 4.56888 13.2846 2.85633 0.528212
584 1 1 6.00251 13.075 3.20848 3.2079
255 1 1 5.56682 13.7884 1.72581 0.870632
688 1 1 7.34171 12.5783 4.60729 0.629481
1128 1 1 8.75751 14.1448 4.73624 3.24426
7139 1 1 8.58015 14.1846 2.31132 1.66484
1912 1 1 9.11265 13.7578 1.67103 0.479879
1139 1 1 9.24344 14.9971 3.35976 1.49321
7545 1 1 10.814 13.6736 3.63551 0.558212
423 1 1 11.8945 13.6105 3.23133 4.23959
6686 1 1 10.0437 14.2145 1.06972 0.599269
7834 1 1 13.2744 15.0289 2.03506 0.355445
6824 1 1 14.33 12.9311 2.58271 2.22395
7040 1 1 12.7438 13.9582 1.81462 0.622284
6599 1 1 15.2375 13.4963 2.51375 1.74311
389 1 1 14.8099 14.3374 3.31524 1.7167
375 1 1 17.3662 13.1653 2.05159 4.76237
7867 1 1 18.154 12.6261 1.62264 2.49456
1567 1 1 0.356818 12.1212 0.820191 1.89387
2358 1 1 18.0477 13.8267 2.71763 1.66736
1445 1 1 1.77344 14.8028 2.4211 0.183421
7555 1 1 1.4681 15.7431 1.80686 2.96765
757 1 1 2.29358 15.0469 1.32992 2.54143
1485 1 1 4.23666 15.6553 2.09357 1.15386
815 1 1 6.2789 14.6944 1.58853 0.191569
7926 1 1 6.92075 15.973 2.31719 0.897751
749 1 1 8.20152 16.0143 1.86315 5.75691
6851 1 1 9.54908 13.8533 2.61687 0.0160073
872 1 1 9.23528 14.8951 1.90549 2.88011
7700 1 1 8.32452 16.9942 3.55309 0.939115
7489 1 1 13.2765 15.4993 3.13073 1.39637
256 1 1 9.83851 16.0132 2.3612 0.0932918
976 1 1 11.7324 14.4628 0.99892 2.06756
381 1 1 12.5936 14.9216 3.79087 0.36126
273 1 1 16.2666 16.775 2.59115 0.968305
7787 1 1 17.592 15.1177 37.5775 3.66723
2367 1 1 18.7113 16.3875 1.30616 0.266295
5999 1 1 1.53753 16.6971 1.16814 1.09621
7887 1 1 18.5398 14.955 2.83955 1.29905
670 1 1 18.2614 17.0524 4.90577 0.394151
7968 1 1 1.56259 17.0819 2.16127 1.01995
1509 1 1 0.622896 15.4084 2.10436 3.06929
6459 1 1 2.49699 17.2571 2.53721 2.89092
1446 1 1 4.01646 18.2341 1.98819 0.879113
1328 1 1 5.29832 18.0688 0.520141 5.85228
7613 1 1 7.31266 16.9647 1.52473 0.284881
3576 1 1 5.92224 15.8012 1.72837 6.79038
292 1 1 7.2815 15.2654 3.46939 1.07997
1582 1 1 8.98086 16.8201 1.89439 1.44677
814 1 1 11.3242 17.2476 1.85428 1.89103
7620 1 1 7.97065 17.4527 2.32258 2.14496
7230 1 1 10.2806 16.9355 2.70263 0.0368109
1505 1 1 9.42244 17.1828 3.91069 2.32989
7149 1 1 12.7895 15.8348 2.29978 2.61325
781 1 1 11.1855 17.5242 3.38548 1.22977
2661 1 1 13.2762 16.1075 1.21639 3.21399
2150 1 1 15.2542 16.6735 1.13539 1.23158
629 1 1 18.0056 15.8119 1.84322 0.724381
1928 1 1 17.9198 16.9916 1.92594 0.541071
2033 1 1 17.0346 16.3808 1.74908 1.56381
7188 1 1 1.40576 18.2972 4.20077 2.93691
686 1 1 18.7293 16.3492 2.26863 1.9767
7585 1 1 0.762037 18.0372 2.16203 0.848935
1140 1 1 3.43769 0.217632 2.68663 0.0245556
1453 1 1 5.37131 16.176 3.91469 1.69774
487 1 1 5.27106 15.3079 2.48121 0.211014
7754 1 1 4.3914 17.0298 3.98173 4.02243
605 1 1 8.23344 18.4626 1.35863 1.31431
7996 1 1 9.34134 18.3619 2.45089 2.17152
829 1 1 8.94894 18.1924 0.504848 0.881597
450 1 1 10.266 18.085 3.17553 4.05421
6027 1 1 11.0613 0.789373 3.54106 0.90334
7987 1 1 10.9345 18.6908 1.49486 1.91986
6673 1 1 11.9996 17.949 1.63438 0.531524
1785 1 1 13.0473 16.4267 3.46993 1.26826
2106 1 1 14.6458 0.177676 1.58852 4.11189
1110 1 1 14.467 17.0971 1.90474 0.829373
1200 1 1 14.4746 17.5555 3.03674 0.49408
129 1 1 16.6242 0.172572 1.42786 1.16157
788 1 1 18.0932 17.314 0.486224 1.43022
194 1 1 17.9353 18.1611 2.76385 2.47106
310 1 1 18.5806 1.4363 4.08081 4.28639
915 1 1 2.69018 1.40636 4.67637 0.863396
7122 1 1 2.5136 18.2505 4.30683 0.592748
175 1 1 5.0355 0.945086 1.59878 0.331545
1367 1 1 3.49166 0.530081 4.49438 2.49551
7123 1 1 5.8345 2.02198 3.82865 1.32858
1331 1 1 5.89583 1.47576 1.91651 0.884409
7762 1 1 7.07966 18.6369 4.67119 1.98601
293 1 1 7.60429 0.954968 4.79944 1.79934
7964 1 1 8.63128 1.68531 5.33185 0.749058
1658 1 1 9.23247 1.24647 3.25646 1.47662
1749 1 1 9.37074 0.335263 3.60755 0.920268
671 1 1 11.9114 1.0915 2.78517 0.875664
1213 1 1 13.2032 1.96476 3.41361 0.885426
1704 1 1 12.4361 0.210868 3.73439 0.1425
180 1 1 14.425 0.232554 2.85266 1.04545
906 1 1 13.3594 18.0816 3.46797 1.03476
982 1 1 15.0568 1.12293 3.26678 1.18414
427 1 1 16.4651 0.772649 2.41087 1.79382
7914 1 1 18.0446 1.85138 3.14023 0.629585
1205 1 1 17.231 17.5377 4.23842 1.02116
1265 1 1 0.818088 1.51735 4.39369 0.793229
1714 1 1 1.21803 2.02695 2.44255 4.3062
1373 1 1 3.23118 2.80319 4.96202 1.34081
480 1 1 3.42718 1.43135 3.07871 3.97849
656 1 1 3.66229 2.56283 2.61448 1.35704
56 1 1 6.54481 3.14692 3.70843 0.179595
7300 1 1 6.73383 1.70755 4.22468 2.71208
7896 1 1 7.1105 2.9749 4.95427 1.76663
1543 1 1 5.71997 3.7212 3.07342 2.03912
6986 1 1 6.65656 2.15524 3.15926 0.351003
96 1 1 9.0937 1.39617 4.36192 1.42879
1852 1 1 7.69186 2.46795 3.43375 2.01784
385 1 1 9.05201 2.19289 1.51021 2.15771
94 1 1 9.23349 2.21379 2.52172 0.900939
824 1 1 10.4968 2.7176 2.74317 0.897654
7989 1 1 11.2917 1.88571 3.15397 1.48265
553 1 1 11.965 1.86084 4.87326 1.21625
100 1 1 12.4507 1.3815 3.78341 1.09869
742 1 1 14.3209 2.44077 4.4428 2.26581
946 1 1 14.1642 1.43604 3.8417 1.58697
1413 1 1 15.3912 3.05798 3.79312 0.455973
314 1 1 17.2363 1.61275 2.39667 4.29197
874 1 1 18.4941 2.88184 3.93671 1.20824
1279 1 1 2.12867 3.05784 2.39029 0.873271
109 1 1 4.11547 3.59929 1.8427 2.08363
3 1 1 2.71825 3.95051 2.21862 3.19818
1202 1 1 4.90823 2.79656 5.19469 1.38184
527 1 1 5.40364 3.55712 4.45902 2.53737
1376 1 1 6.0933 4.34861 4.00475 1.27647
479 1 1 7.87409 5.50658 5.47826 0.771391
1378 1 1 8.15418 4.1771 3.93506 0.852019
2736 1 1 8.56811 3.69136 4.90207 2.03178
3337 1 1 9.95146 2.96196 1.80791 0.183474
7625 1 1 10.153 5.35246 1.47658 0.376687
1664 1 1 12.0929 3.32919 2.13064 1.29902
685 1 1 13.206 3.58271 1.75093 1.96817
7250 1 1 13.5073 3.02668 3.33191 0.757986
602 1 1 16.344 3.64746 3.935 1.51031
7950 1 1 17.7557 1.91546 4.3735 2.36285
1239 1 1 17.478 3.39392 3.67025 0.490131
155 1 1 0.401191 3.349 4.56421 0.232609
6152 1 1 1.30112 2.80281 3.44191 1.38182
7366 1 1 18.7703 4.47189 4.74808 0.683924
7841 1 1 18.3455 4.3641 2.08127 1.03457
1596 1 1 2.48904 6.23774 3.04388 0.771913
1717 1 1 2.9527 5.37662 2.69732 1.56542
158 1 1 3.56578 6.56072 2.88934 0.57585
1883 1 1 5.32652 5.92783 2.88761 3.07092
580 1 1 3.85905 4.54677 3.12819 0.243473
5739 1 1 9.00535 4.95951 3.50194 1.31201
890 1 1 9.89326 4.55867 3.07463 0.468354
2103 1 1 9.62258 4.3934 4.2918 1.60701
140 1 1 11.7429 5.63084 4.33564 1.80502
281 1 1 11.4419 4.70659 4.0235 0.566699
1262 1 1 12.4706 6.99018 5.23336 0.716243
446 1 1 13.2982 5.12422 5.51297 2.73083
2075 1 1 14.0462 5.57172 3.93716 0.0628525
581 1 1 14.9226 5.62222 3.14049 0.85861
7468 1 1 15.4128 4.17814 3.08867 0.0179038
2432 1 1 16.8546 4.60828 3.72879 1.66927
1336 1 1 16.898 4.22862 5.1262 1.53761
148 1 1 16.9304 4.28176 2.61672 1.30514
190 1 1 17.5551 4.40857 4.37277 1.0575
3586 1 1 17.7205 5.26229 3.42252 0.660574
7683 1 1 1.97614 6.40167 5.07686 0.363751
238 1 1 2.7964 6.42865 4.48981 0.416683
729 1 1 5.04148 6.28172 4.58785 0.0506146
1754 1 1 3.94815 6.23135 3.83423 0.0100367
440 1 1 7.38227 5.80113 4.02352 3.51626
2397 1 1 7.77749 5.33083 2.24136 1.11705
1405 1 1 6.04579 6.71799 4.46948 0.482451
1194 1 1 9.03899 6.08638 2.83426 3.16445
1466 1 1 7.55668 6.71083 3.41643 1.07722
177 1 1 9.74608 5.65042 3.79351 3.57786
575 1 1 10.0342 6.85363 3.27039 1.04746
488 1 1 11.8804 6.92948 3.97928 1.3689
1759 1 1 11.1064 6.96981 5.27048 0.285675
6463 1 1 12.6892 7.93174 2.13779 2.30361
591 1 1 15.5373 4.96785 5.57213 0.356823
7273 1 1 16.7321 6.76495 4.34517 0.208215
3565 1 1 15.7777 5.561 3.98291 1.34243
444 1 1 18.724 6.19006 3.21969 1.73423
481 1 1 1.10241 5.48075 3.34766 0.745746
1942 1 1 0.339352 9.40748 2.64814 0.398871
1562 1 1 0.206585 8.16301 3.01618 2.05177
134 1 1 2.09422 7.50225 4.31572 2.67754
875 1 1 1.70418 7.63288 3.27559 0.993737
983 1 1 3.88751 7.11035 4.52131 2.03547
131 1 1 2.80325 8.03091 3.76268 3.55429
7862 1 1 5.46856 7.4979 4.74531 0.24342
541 1 1 6.6085 8.5229 4.00359 0.548503
1802 1 1 8.8575 9.08193 4.66215 1.82806
557 1 1 10.7984 7.43208 4.28529 0.0558621
1069 1 1 11.0596 8.22293 3.07801 1.15234
1781 1 1 9.70695 7.83396 4.36896 0.83991
1422 1 1 13.6739 5.83998 2.68173 1.12304
1833 1 1 14.7299 8.50025 3.50183 2.33703
960 1 1 16.1489 8.91198 3.78648 0.34144
305 1 1 15.8821 7.44728 5.37047 3.72176
1183 1 1 15.9368 7.05951 2.99364 5.43947
1000 1 1 18.5253 7.49619 3.68874 0.801901
1709 1 1 17.9173 6.45546 4.3214 0.626077
2357 1 1 1.98377 10.7521 2.68466 0.772899
2110 1 1 0.937854 9.67678 3.43226 0.126019
1399 1 1 0.825412 8.38049 4.10784 0.355249
1113 1 1 1.49809 9.21946 2.64836 3.09493
7845 1 1 0.611243 10.8647 1.45087 2.11086
114 1 1 2.90441 8.93884 2.71278 0.363622
1917 1 1 4.51213 7.83995 4.08004 1.28651
1280 1 1 3.81396 8.85164 3.25759 0.854026
478 1 1 6.27766 10.215 4.5345 1.01517
1415 1 1 6.56271 11.0761 3.20578 1.6897
378 1 1 8.28428 8.64229 3.53019 2.10915
374 1 1 9.24365 8.03198 3.45295 2.14279
7531 1 1 9.48398 9.62388 3.92843 0.101831
1460 1 1 12.3015 9.7247 3.51886 0.122672
641 1 1 13.844 9.53112 5.07672 2.11671
6875 1 1 16.8998 9.55975 3.22038 3.33313
1870 1 1 0.365613 9.48899 4.55934 0.192555
6719 1 1 17.7602 11.0026 4.56547 1.34061
1276 1 1 2.21247 11.4768 3.66039 2.64494
336 1 1 18.5347 11.5643 3.5458 1.01266
916 1 1 1.66915 10.3685 4.64913 0.383927
1863 1 1 2.19735 11.4617 4.86237 1.0491
2311 1 1 2.84482 9.76404 4.65445 1.26334
1728 1 1 4.11062 11.669 3.79766 1.86127
408 1 1 4.11078 12.789 3.78563 0.116672
1417 1 1 5.1494 10.8597 5.03164 1.9961
365 1 1 5.54597 12.3987 1.73326 1.11089
1465 1 1 7.19354 9.22786 3.30192 2.71876
1001 1 1 7.82083 11.1348 2.54806 2.31182
1046 1 1 7.74403 10.1081 2.93586 1.83617
277 1 1 10.1054 10.4637 1.69071 2.9777
64 1 1 8.46557 11.0157 3.79121 1.28975
241 1 1 10.084 10.6217 3.60921 2.82701
1017 1 1 11.3932 9.5102 3.74429 2.47274
7573 1 1 10.4303 9.73801 4.33943 0.163195
7739 1 1 12.0052 9.00565 2.79383 2.332
433 1 1 11.4279 12.9127 2.25521 2.00847
2062 1 1 12.4838 10.917 4.85347 5.05583
1706 1 1 13.5776 10.6119 4.9684 3.70568
7444 1 1 13.0135 10.2072 4.05697 2.26447
386 1 1 14.0445 12.0982 3.31981 0.459783
1533 1 1 14.9907 10.1878 4.4408 2.02169
683 1 1 16.6371 10.7349 2.37054 1.69723
1965 1 1 14.6456 9.40048 2.18406 0.695922
1349 1 1 17.7338 10.815 3.36965 0.814633
7350 1 1 0.576956 12.206 3.76177 0.00642647
7927 1 1 2.7839 12.3092 5.29419 1.30146
243 1 1 3.26247 12.0902 4.36698 1.20936
863 1 1 2.44275 9.42256 1.8271 1.973
1958 1 1 5.25557 13.8315 3.64629 4.94009
344 1 1 5.42136 12.2374 3.41088 1.13391
216 1 1 6.21168 11.9041 4.29999 3.01767
1163 1 1 7.84981 12.2244 3.05199 0.971411
699 1 1 8.36477 11.9349 2.16727 0.323728
823 1 1 10.6994 12.6923 4.39838 3.20127
1545 1 1 9.65063 11.1602 4.47004 1.36493
1165 1 1 11.0186 11.1094 3.48396 0.355283
7984 1 1 12.3134 11.9195 4.31131 1.6214
6590 1 1 12.8768 12.1967 3.19421 4.82776
6750 1 1 14.75 11.5494 2.81054 3.49972
1187 1 1 12.8985 13.2011 3.21378 2.3414
1676 1 1 12.9685 12.7511 4.53023 0.622243
1087 1 1 16.6906 10.5221 4.01792 1.30051
1351 1 1 17.6582 12.0175 4.41546 0.919471
1528 1 1 18.6716 11.8752 2.13676 0.553187
1360 1 1 1.44372 13.5746 2.49019 3.66467
1116 1 1 2.34967 13.2896 3.6986 0.962115
6720 1 1 3.57257 14.0374 4.8961 1.12341
6563 1 1 1.7325 13.5353 4.69371 0.995328
1082 1 1 4.05978 13.0819 5.03819 0.643725
1526 1 1 5.37134 14.77 4.8752 0.753089
7376 1 1 5.11933 13.7289 4.78462 1.61302
1448 1 1 5.9609 14.841 3.56331 1.19399
1210 1 1 8.66752 13.6865 3.4567 6.38736
6683 1 1 9.01737 14.0806 6.19963 0.979211
7464 1 1 7.07761 11.1319 4.66656 0.751333
7990 1 1 9.51524 15.1194 4.52773 0.662379
221 1 1 11.6938 11.3661 2.45256 1.65113
1590 1 1 13.6947 14.7577 3.78925 0.942899
1147 1 1 12.829 13.9316 3.78562 0.54755
7993 1 1 14.9763 12.7326 3.52269 0.928277
818 1 1 15.6301 12.1798 2.89067 0.66637
669 1 1 16.573 13.4166 2.71937 2.50797
2798 1 1 16.2972 12.7763 4.20863 2.10849
259 1 1 18.4196 12.9093 3.20291 0.244981
1971 1 1 0.884443 13.4018 3.67066 1.49466
240 1 1 16.975 11.4986 3.43816 1.50676
608 1 1 0.533026 13.9184 4.60911 1.31154
126 1 1 0.536414 16.778 4.53812 1.64921
1282 1 1 2.92487 15.2599 2.04844 0.516262
2755 1 1 2.84673 14.9322 4.8808 0.321361
795 1 1 3.73198 14.5644 2.20507 0.44106
840 1 1 4.34489 15.1043 2.95144 0.177136
834 1 1 5.31004 14.3513 2.76338 3.76568
1337 1 1 4.31059 16.0776 3.8553 0.275515
684 1 1 6.73176 14.584 2.64978 0.254751
504 1 1 8.23513 14.5816 3.53869 0.748085
902 1 1 6.17822 15.6127 2.94289 0.627263
391 1 1 8.58779 15.4732 4.15578 1.13943
452 1 1 7.56295 15.1388 4.50225 1.30025