ITEM: TIMESTEP
2600
ITEM: NUMBER OF ATOMS
8000
ITEM: BOX BOUNDS pp pp pp
0.0000000000000000e+00 1.8820720577620570e+01
0.0000000000000000e+00 1.8820720577620570e+01
0.0000000000000000e+00 3.7641441155241139e+01
ITEM: ATOMS id mass type x y z v_temp
351 1 1 0.10702 1.27842 2.34061 1.15439
1198 1 1 3.8442 0.448641 0.173916 0.231436
1116 1 1 3.28118 0.739893 0.974427 1.35619
6280 1 1 2.03827 1.1121 1.11361 1.01071
6076 1 1 4.16133 0.921804 36.7936 1.38693
7613 1 1 5.40406 18.3484 2.24334 0.318555
775 1 1 8.37662 2.32354 0.788764 0.397358
6363 1 1 5.821 1.88004 1.3335 3.95005
175 1 1 6.84963 17.468 0.31986 0.864302
934 1 1 8.64571 2.19602 37.331 2.2248
1416 1 1 7.82392 17.3469 1.07093 3.0223
6582 1 1 11.7317 17.7359 2.95006 0.770119
1139 1 1 11.6497 1.45825 37.2177 1.33021
7873 1 1 10.3586 18.1444 37.5121 0.327414
352 1 1 15.0529 18.8365 36.2018 2.48421
1377 1 1 14.7716 2.69017 1.86783 5.6218
7568 1 1 13.4678 18.4666 37.5974 0.704602
1186 1 1 15.9464 17.1073 2.45371 2.89634
1265 1 1 15.2809 1.80188 0.480017 0.987019
126 1 1 15.6232 0.425541 1.4882 2.10143
791 1 1 18.7471 2.06136 37.5644 6.76348
1999 1 1 17.6824 17.0611 0.598936 3.99305
383 1 1 1.00693 2.15179 2.11055 0.935863
7930 1 1 0.505474 1.70497 1.23147 4.36506
6845 1 1 17.2065 2.52147 0.706257 1.56295
31 1 1 0.513448 2.71729 3.03419 1.22534
1739 1 1 2.57374 0.252747 0.362376 1.80073
7604 1 1 2.55042 1.73379 0.453389 0.323659
155 1 1 5.34563 0.24272 37.3406 3.36891
7785 1 1 4.86889 2.38862 2.03751 0.798224
1446 1 1 7.77418 1.31857 37.54 1.24108
217 1 1 8.95903 3.09848 37.4271 0.483928
418 1 1 8.37263 2.87779 2.05636 0.74502
726 1 1 10.3607 2.97012 1.69538 3.36889
2348 1 1 11.5954 2.6765 2.32112 1.58231
1333 1 1 11.2143 2.73995 0.687781 1.65737
515 1 1 12.8014 1.72585 0.94789 2.21337
7745 1 1 12.8252 0.631696 0.358472 0.482391
1270 1 1 12.9517 1.59595 2.24283 0.977832
6850 1 1 14.4996 2.69808 0.790009 0.955176
1037 1 1 16.6176 2.58405 1.67271 0.283821
1315 1 1 17.7452 18.3447 36.1968 4.56553
6006 1 1 0.390024 3.49142 1.34492 2.61062
508 1 1 18.5362 2.67249 0.8667 1.82706
1045 1 1 0.115741 5.93127 1.24364 1.48346
875 1 1 1.91363 4.50109 36.4445 0.418595
7718 1 1 2.65479 4.67674 0.40907 0.758193
6152 1 1 5.14022 4.15112 1.77771 0.196553
1348 1 1 5.75139 2.8881 1.93371 1.37242
6026 1 1 4.53957 4.80576 2.26116 0.884083
1850 1 1 6.86897 3.03741 0.753532 2.45212
1381 1 1 9.3747 6.77984 0.169443 2.43429
7861 1 1 7.48538 3.78173 1.73229 0.880276
7032 1 1 11.9151 3.52822 1.34123 0.389287
1661 1 1 9.51753 2.15792 2.79618 6.01487
7588 1 1 11.978 5.24024 36.7217 1.51107
6060 1 1 11.9809 3.89574 3.14373 0.120078
1806 1 1 14.536 3.87304 0.92075 0.871401
7155 1 1 12.0911 4.54143 1.09337 1.51183
437 1 1 12.4432 4.27832 37.2278 2.96523
7301 1 1 14.4516 1.89867 37.5412 1.04682
2221 1 1 16.6384 3.01501 36.0566 0.380959
7468 1 1 13.8488 3.15613 1.95815 2.27058
5355 1 1 16.7143 3.62771 0.762645 0.657636
223 1 1 18.0535 5.46472 0.763549 1.75679
2033 1 1 1.74961 3.20942 3.64828 0.611717
1401 1 1 1.11088 5.59295 35.6377 0.327962
7697 1 1 3.30206 5.18652 37.2701 0.976239
936 1 1 2.82436 5.18733 1.86257 1.65371
7904 1 1 3.62251 4.23659 37.2107 1.71374
582 1 1 6.79311 4.7152 36.4603 3.09905
6922 1 1 8.7321 4.3299 0.538088 2.29178
7748 1 1 7.70729 4.3847 35.863 0.805527
7387 1 1 7.93912 5.22734 0.763907 1.34781
6703 1 1 9.19411 2.98026 1.23143 0.484001
6551 1 1 11.0693 4.50332 0.653508 1.99108
7408 1 1 10.962 5.44012 37.0046 0.138494
6044 1 1 13.3751 6.06331 0.0916746 1.08583
271 1 1 13.4125 6.09328 3.04897 0.470833
7320 1 1 13.5876 3.3704 34.4247 0.160761
7115 1 1 14.0363 4.8638 0.391913 3.01279
1329 1 1 15.2584 5.17525 37.6224 0.575927
103 1 1 16.7124 5.37226 0.648879 2.36411
7091 1 1 16.0549 6.26784 36.7066 0.237355
7717 1 1 18.2821 9.35849 1.07651 1.15579
6161 1 1 1.97916 6.24538 36.7198 2.70646
137 1 1 18.1142 6.80586 2.12784 4.16343
7507 1 1 1.95169 5.52057 0.0460788 1.65757
1409 1 1 0.842359 6.88354 0.914952 5.6674
7942 1 1 0.493609 8.17279 1.41904 2.36348
6971 1 1 3.74506 7.79247 1.2509 0.798726
72 1 1 1.65777 7.63015 0.689714 1.34602
190 1 1 4.61891 7.15189 0.0153926 2.35999
6605 1 1 2.95338 7.38395 2.02664 0.598435
7215 1 1 4.41799 4.96244 4.00874 0.737972
294 1 1 7.46468 6.87627 0.0954005 1.12943
7944 1 1 2.75429 6.85146 3.2205 0.911215
5747 1 1 6.75906 4.21226 2.4127 0.201475
429 1 1 9.00374 7.84985 37.3675 2.22533
7094 1 1 10.27 6.90572 2.27986 0.730622
21 1 1 8.55572 6.49009 36.9958 2.58878
61 1 1 10.6372 5.34594 0.827561 1.86256
6619 1 1 13.2978 7.84958 0.816617 3.88019
550 1 1 11.8313 5.13427 2.81589 0.533593
533 1 1 10.2756 4.90883 2.05124 0.723854
1664 1 1 14.3562 6.39831 0.50216 2.35319
486 1 1 14.7371 7.09725 3.14511 0.88579
591 1 1 13.5839 7.211 3.44972 3.11517
164 1 1 13.8123 3.74468 0.162281 0.518866
762 1 1 17.443 8.45877 37.1585 1.08486
6476 1 1 15.3177 6.25592 0.136254 3.08821
5857 1 1 17.2929 7.50556 0.249986 3.08631
354 1 1 6.48541 6.21317 36.3031 1.89365
6987 1 1 2.81911 5.83799 0.669398 2.84635
6874 1 1 6.16599 7.43343 1.38435 2.88105
1415 1 1 5.18656 7.28814 1.83894 3.87342
615 1 1 6.93981 9.31929 2.47291 2.27085
7740 1 1 8.29001 9.43266 36.7109 0.684212
7958 1 1 11.5654 6.24486 36.6315 1.49467
973 1 1 11.3764 8.28327 2.01019 2.38783
6463 1 1 10.2287 7.86571 37.1523 3.38035
91 1 1 14.4789 7.57359 0.14793 0.773712
1193 1 1 13.325 7.07376 1.79262 0.0792353
276 1 1 15.7069 7.6469 0.202382 0.628518
5649 1 1 0.245677 9.57726 37.5798 2.11842
371 1 1 16.2622 6.71283 0.796685 0.707772
1360 1 1 2.40945 8.14398 37.2857 2.28578
6196 1 1 1.53196 8.72459 3.24159 1.15137
6762 1 1 1.04228 12.3623 2.40809 4.15375
6126 1 1 5.37641 10.2453 37.037 1.89961
834 1 1 3.54132 10.7107 1.89666 1.52183
7326 1 1 5.53299 8.52996 1.61744 0.648043
1681 1 1 4.09465 8.68736 1.42484 1.0291
6584 1 1 7.61689 10.801 0.414959 1.52617
7065 1 1 6.87736 9.22571 0.830848 1.54704
7943 1 1 9.75069 10.1045 0.942961 0.185137
1781 1 1 6.6204 7.71286 2.73278 0.825755
6497 1 1 9.64619 9.16781 1.43099 1.8694
7866 1 1 11.4887 9.97712 0.125187 0.19343
6699 1 1 12.5614 9.03832 37.0087 0.291577
574 1 1 11.8429 10.3739 1.83018 0.377356
7266 1 1 12.0148 9.48961 1.40258 3.73145
7983 1 1 14.1494 7.88149 1.6009 1.59658
7021 1 1 16.4894 8.66209 0.762746 1.96237
6599 1 1 18.7231 10.358 35.6333 0.872254
6159 1 1 17.5322 8.16344 2.85313 2.73727
86 1 1 1.32244 9.20465 37.3442 1.44088
7621 1 1 4.55291 12.6762 1.89696 3.34344
7967 1 1 0.753868 10.496 0.0390181 0.50857
7047 1 1 3.59357 9.66648 1.09065 0.557299
6656 1 1 4.01803 11.2041 35.419 0.725837
955 1 1 7.45267 9.99324 1.52729 4.76363
6842 1 1 7.16993 12.9917 1.46684 1.79344
7002 1 1 9.19412 10.1348 37.6276 0.855658
1790 1 1 8.19494 12.283 0.431953 5.62499
6380 1 1 5.09349 9.31264 35.5073 0.620477
6933 1 1 7.53514 8.15979 1.11594 0.226499
721 1 1 10.5114 8.35868 0.422495 0.560761
6752 1 1 11.6865 12.3319 36.9011 3.39976
6527 1 1 12.35 12.8909 37.544 2.13137
38 1 1 13.596 10.8802 3.09454 2.40365
678 1 1 10.3097 10.0521 0.012242 3.84327
423 1 1 13.1388 10.3615 1.06639 2.05886
1074 1 1 14.1798 9.85564 0.252976 3.38217
1068 1 1 16.2525 11.9527 35.1877 1.60396
969 1 1 15.0494 10.7352 1.10787 0.898011
1349 1 1 17.9539 9.45422 -0.0236902 4.00129
634 1 1 0.00690624 12.8651 36.8313 4.39297
7772 1 1 18.1695 11.8475 1.11378 0.924842
7836 1 1 0.916717 13.9011 34.8517 1.03817
7855 1 1 1.34317 13.1853 0.342426 2.89049
549 1 1 2.79235 12.37 0.292631 0.270962
773 1 1 1.92209 12.7571 1.76564 0.219048
7056 1 1 2.68256 12.8942 2.63045 1.55783
8000 1 1 5.13913 10.7297 1.85301 1.07954
7854 1 1 3.28524 8.83168 0.373677 1.05237
1432 1 1 7.72233 13.3602 2.19915 1.4419
829 1 1 6.53552 13.181 37.205 1.35085
10 1 1 9.04495 11.3602 -0.0107595 0.346599
6399 1 1 9.39629 15.4634 0.827495 0.829273
6939 1 1 11.009 13.3391 36.6422 0.286248
1103 1 1 11.4407 15.7406 0.539324 2.71336
236 1 1 9.20824 14.4773 36.5652 1.05388
7548 1 1 15.8638 11.0176 37.1312 1.01192
2320 1 1 12.0025 12.6514 1.63023 0.984372
6590 1 1 15.0683 13.7098 2.15782 3.44113
7993 1 1 15.8096 12.8509 35.8282 0.972136
2353 1 1 15.6741 12.1335 0.904935 1.03546
7670 1 1 18.6579 12.8211 1.59305 10.074
1676 1 1 17.1858 11.5857 3.08057 0.0302601
1567 1 1 17.8309 12.86 37.3341 1.74806
7947 1 1 1.43357 14.7973 2.83033 1.79551
962 1 1 18.7368 14.3419 2.06361 0.303895
4804 1 1 1.50907 13.7461 2.96652 1.19286
7957 1 1 2.47111 15.5611 3.90512 1.72806
1350 1 1 3.15301 12.8781 37.0053 0.990431
7217 1 1 3.77397 15.5726 0.606192 0.0691532
6232 1 1 3.22681 12.0851 1.0944 1.11356
287 1 1 4.81389 12.7164 36.375 2.22945
7248 1 1 5.07004 15.9323 0.688021 2.92133
239 1 1 8.27402 15.7599 1.13428 2.16763
1144 1 1 9.59606 15.0482 37.3355 3.09321
1295 1 1 8.67904 14.9424 2.85224 0.688675
976 1 1 13.8298 12.4321 3.036 2.45073
7680 1 1 12.4215 15.693 0.0901089 1.97918
297 1 1 15.9288 13.1627 36.8973 1.46955
7052 1 1 14.9826 14.7749 2.51288 0.361755
7853 1 1 0.0136256 13.5903 0.286656 0.250145
2409 1 1 18.1272 14.3592 1.06824 3.0199
7338 1 1 16.0127 12.7653 1.66516 0.194125
1529 1 1 16.6271 16.4508 1.14904 0.867071
7926 1 1 1.77575 15.5464 35.897 3.76275
686 1 1 2.35346 17.4874 2.74443 0.290846
7101 1 1 1.82199 16.8838 0.0306687 4.69714
7454 1 1 2.83212 15.9498 35.6237 0.318807
558 1 1 3.74825 15.0257 3.04863 0.369069
1481 1 1 5.13585 16.9667 37.1644 1.72983
844 1 1 4.5953 14.533 1.7305 1.90317
1210 1 1 6.99646 13.6006 0.466031 6.52761
7891 1 1 10.3568 15.8648 0.228919 0.490578
7180 1 1 10.9085 13.8336 2.8046 1.66999
7543 1 1 13.3471 13.972 37.0236 0.882769
389 1 1 14.0442 15.3299 0.840369 0.634397
432 1 1 14.1663 14.9539 3.31148 1.88845
653 1 1 15.6475 17.4946 1.12756 2.68733
393 1 1 17.224 13.8688 36.3108 1.40787
7390 1 1 16.4308 17.1041 35.2071 1.49557
1406 1 1 17.8268 15.255 1.57107 0.378192
579 1 1 16.7865 16.8308 0.105429 0.610049
7451 1 1 2.32381 18.164 1.79445 1.89423
1569 1 1 1.16041 0.383782 34.846 0.922346
757 1 1 1.12748 16.1446 1.32455 1.73435
7569 1 1 4.75517 14.5706 36.6426 1.42102
1729 1 1 4.7201 15.5196 2.07896 0.447572
605 1 1 6.9174 17.2761 1.41145 2.89823
1995 1 1 6.70077 16.1025 0.165295 2.40963
7303 1 1 6.13219 15.6745 1.17982 0.655662
1582 1 1 5.69975 17.4276 36.3376 1.86339
13 1 1 7.0882 18.6156 0.210676 0.131802
1206 1 1 9.72299 17.7696 36.3531 0.914667
6851 1 1 8.52594 16.7913 0.491874 2.60836
7452 1 1 11.1966 16.9333 2.1536 0.621076
7149 1 1 11.7197 0.318899 0.665251 5.41722
433 1 1 10.6607 15.2588 2.39458 1.6071
7341 1 1 14.9453 16.3228 35.7661 0.32264
1110 1 1 17.6604 17.0689 3.45836 0.197989
356 1 1 14.9189 15.6151 36.6274 1.59401
629 1 1 15.2016 14.6798 0.46601 0.169952
1042 1 1 17.6494 16.3675 2.03529 0.159555
5999 1 1 17.5763 17.3919 35.4261 1.35307
7892 1 1 1.40102 16.4661 35.9041 0.420395
129 1 1 3.29924 18.5381 36.7435 1.98294
6688 1 1 3.73013 17.6434 1.71098 2.15154
692 1 1 4.01052 18.6737 1.27505 0.994588
6713 1 1 2.131 17.8997 37.5906 1.64961
7404 1 1 3.00008 15.2998 1.15035 2.33384
835 1 1 3.93532 15.5962 35.6195 1.22707
6835 1 1 5.62657 15.8786 37.5409 1.23355
566 1 1 7.21141 18.2584 1.18039 0.258316
6914 1 1 7.91122 17.8102 0.18681 3.49276
5985 1 1 11.0727 15.971 37.011 2.55342
472 1 1 13.5462 17.2502 1.93785 1.69154
7672 1 1 13.7318 16.5196 37.1958 3.32761
2287 1 1 18.4542 0.39473 36.0881 1.49982
6092 1 1 13.2932 15.9258 0.480517 0.637522
7106 1 1 18.5752 17.5379 34.786 2.60418
7202 1 1 16.5575 1.32758 0.452479 3.1328
2662 1 1 18.6267 17.2334 37.2707 0.747679
7261 1 1 0.450769 15.0249 37.1552 1.27872
194 1 1 18.2368 2.15817 2.69303 1.27722
954 1 1 1.08301 17.8446 1.68399 2.33844
643 1 1 1.76804 3.33892 1.56021 0.975889
7818 1 1 5.90856 0.382989 1.79955 0.399212
3146 1 1 4.93258 0.694877 0.457416 0.263559
1279 1 1 2.3691 0.370503 1.87655 0.457638
7166 1 1 6.34766 0.177432 0.782615 1.42009
1140 1 1 7.52847 1.52125 1.01866 3.40448
895 1 1 8.6405 1.14764 1.13265 0.353958
700 1 1 11.7628 0.450055 3.03564 0.998234
6986 1 1 9.46319 17.5151 1.34766 2.48974
1708 1 1 9.87031 15.5069 3.3068 1.32305
505 1 1 13.6896 1.23977 1.19 0.0595868
2106 1 1 12.6148 17.2908 0.189151 2.60728
640 1 1 11.4755 16.4358 3.34143 1.57388
7440 1 1 15.8321 2.16403 1.25175 0.91967
1928 1 1 17.7298 17.7923 1.39502 2.00947
1672 1 1 18.1643 0.868273 1.5535 1.41113
7992 1 1 1.15456 4.4954 2.52148 2.41124
7938 1 1 1.10427 4.30495 0.949686 1.00516
656 1 1 4.45572 3.09492 3.00845 0.947792
489 1 1 3.07252 3.15763 1.76747 0.630735
1309 1 1 5.9825 2.23421 2.59823 1.29758
6942 1 1 7.45558 0.586992 36.8109 0.118227
7535 1 1 7.85792 1.52049 2.90274 0.870697
7332 1 1 11.0274 1.61881 0.426701 2.17143
6477 1 1 8.77875 1.51247 3.14581 0.69176
94 1 1 10.8275 1.53294 2.69282 2.22273
6659 1 1 9.99485 1.89115 1.6028 0.581933
82 1 1 7.91396 4.54462 2.72843 0.863842
1993 1 1 10.2482 17.2417 1.91583 1.96309
511 1 1 13.0209 18.0597 2.56384 0.475079
1339 1 1 12.1095 1.22265 1.82656 1.69845
122 1 1 11.0808 18.6538 1.83432 4.36539
3071 1 1 13.4632 3.51678 2.98252 1.47565
1183 1 1 14.716 1.401 1.38123 2.17995
1591 1 1 16.555 1.21076 1.90478 1.90073
149 1 1 17.3729 1.73874 1.38119 2.09521
1020 1 1 15.6149 3.1839 37.4563 0.996919
7088 1 1 17.4086 1.16119 2.59467 1.56805
7841 1 1 1.91423 4.30621 3.47991 1.74353
366 1 1 2.49354 4.47605 2.71734 0.668662
406 1 1 2.59604 4.06001 1.79571 1.14001
509 1 1 0.787196 4.7314 4.09363 0.182441
2824 1 1 2.5379 3.53331 0.7607 1.7649
3 1 1 5.6756 5.26449 2.84864 1.17391
1237 1 1 4.37378 4.0999 3.28911 1.44375
7503 1 1 5.0561 4.56571 0.692073 1.7973
7663 1 1 6.54904 4.51399 4.55854 1.30604
7653 1 1 8.84883 4.005 1.82037 3.60649
661 1 1 6.80969 3.0795 2.29199 0.554362
56 1 1 6.84842 1.2273 1.82783 1.81521
570 1 1 8.33124 4.99885 3.54984 2.87864
3337 1 1 12.618 2.74527 1.34589 0.648006
1648 1 1 12.723 3.38081 2.13519 1.88266
980 1 1 12.0603 0.0481228 1.98866 0.870665
1239 1 1 12.9327 5.36798 2.07615 4.65324
6241 1 1 15.5 3.00565 0.884723 1.22044
651 1 1 16.412 4.45367 3.41965 1.80087
115 1 1 18.2436 3.78847 2.67907 1.33524
7937 1 1 1.31352 2.64364 4.46261 2.22067
314 1 1 18.5571 4.81009 2.63774 1.27791
7284 1 1 0.0455808 4.64898 1.65644 1.47444
7631 1 1 4.37876 3.36524 5.2769 0.919181
68 1 1 1.13479 5.61606 1.06166 2.37033
7660 1 1 3.30667 3.91091 3.28539 1.98018
1714 1 1 5.05767 6.2627 0.471231 0.725452
7643 1 1 8.33756 6.11386 0.637724 0.256812
7644 1 1 11.0535 3.97715 1.9248 1.28446
553 1 1 10.7966 6.74174 3.19981 1.41973
7348 1 1 11.4278 5.20584 1.90195 0.46571
588 1 1 13.387 4.65912 4.69895 2.3776
1826 1 1 13.2045 5.12606 3.17734 1.90846
1833 1 1 12.8019 7.98953 3.04239 0.490043
469 1 1 14.6281 5.45464 0.912112 2.36585
7358 1 1 16.2188 4.67494 1.48859 3.95765
802 1 1 18.0801 6.05435 3.17619 0.508142
7659 1 1 16.4477 5.86425 1.64092 0.157001
3092 1 1 16.7337 5.32531 2.60232 1.11983
1287 1 1 17.2558 8.45717 5.39744 1.35343
5817 1 1 3.73531 7.51866 3.05189 2.16679
7242 1 1 1.85226 7.1913 3.60828 2.11984
7803 1 1 1.70656 5.98277 2.71725 0.425905
7738 1 1 5.502 5.38391 1.67873 0.469942
1596 1 1 1.96204 8.18593 1.95739 0.400726
1427 1 1 1.99085 6.4153 1.16902 0.154766
214 1 1 8.55746 4.87847 1.84215 0.24067
1076 1 1 9.4128 5.76723 0.658449 5.20913
1369 1 1 8.05795 4.56312 4.56316 1.3181
117 1 1 7.72271 7.81087 2.4306 2.13999
7625 1 1 10.0072 4.24066 1.28294 0.968555
7972 1 1 14.3149 5.59642 4.6287 0.920237
140 1 1 12.4064 6.7347 2.08818 0.701262
7719 1 1 13.4246 5.79309 1.19504 2.12921
7185 1 1 14.4389 5.05085 3.60983 0.617527
1537 1 1 14.5943 6.95428 1.62239 3.63879
7544 1 1 15.0543 5.17032 2.25304 0.655624
6995 1 1 0.874537 9.98835 5.07165 0.856995
6975 1 1 4.4902 10.1268 3.18736 4.55728
1562 1 1 1.2001 9.1165 0.984367 2.45955
926 1 1 1.034 8.88445 2.06431 2.45141
7472 1 1 4.56851 9.03245 2.63974 2.53117
925 1 1 4.29885 8.16041 2.18957 1.24862
529 1 1 5.14604 8.14271 0.251097 0.826525
1547 1 1 4.32437 10.9628 1.03144 0.41731
1224 1 1 7.14269 6.17797 0.931523 2.41894
1194 1 1 7.75896 8.48351 3.32518 0.575652
1107 1 1 9.89354 7.32816 3.33372 1.3595
6566 1 1 8.96984 6.65197 1.80389 0.830889
519 1 1 13.0899 5.72871 5.05695 4.46893
2244 1 1 11.2943 7.04552 2.37193 1.54029
277 1 1 10.7664 7.35828 1.43263 0.508979
5690 1 1 11.8806 7.03627 1.25968 1.44299
543 1 1 13.9135 7.41287 2.46402 3.12654
102 1 1 16.4217 8.33234 3.00351 2.01436
913 1 1 15.4323 7.57871 1.29525 1.33055
669 1 1 16.6986 8.28564 1.76325 0.375133
6675 1 1 18.5558 8.6252 1.80842 0.373866
107 1 1 0.997324 8.42205 4.3743 1.28467
1036 1 1 1.71756 11.3508 0.256611 0.444672
178 1 1 2.69867 11.3079 3.88699 1.67098
1863 1 1 5.97006 9.94617 1.30279 0.149142
369 1 1 2.85454 8.91593 1.21103 0.29171
2311 1 1 6.06458 8.99164 4.38633 0.581425
1046 1 1 7.00696 10.7785 1.95348 0.781142
238 1 1 8.84626 10.4233 1.14764 0.584489
985 1 1 8.21112 7.14226 3.31969 3.6357
7538 1 1 8.89396 10.7281 5.15509 2.65949
341 1 1 12.7057 7.87883 4.0952 3.12926
7156 1 1 11.3228 9.32443 2.15392 1.7722
610 1 1 11.2183 8.73866 1.16463 0.0632779
1487 1 1 10.8244 10.7061 2.84366 2.90009
7945 1 1 15.0387 8.56318 0.758447 0.688455
1906 1 1 15.733 8.6898 2.08852 1.76103
79 1 1 16.4333 9.34945 2.6821 0.581703
247 1 1 2.07614 9.36913 2.35653 0.371009
7851 1 1 0.5201 13.4999 1.22127 2.29521
230 1 1 1.00275 10.0153 2.06588 1.12033
300 1 1 0.65184 10.9985 4.38612 0.757453
7966 1 1 2.19722 10.2594 1.32937 1.69309
445 1 1 3.3284 12.5529 4.2209 1.15656
765 1 1 3.93812 9.82153 2.28032 2.49781
340 1 1 4.87267 9.81311 1.66054 0.906823
1264 1 1 4.67233 10.2483 4.53071 0.31481
481 1 1 5.10488 11.1762 3.27049 1.02576
1389 1 1 4.88397 11.6497 4.87382 0.114001
7335 1 1 8.36148 8.53186 1.69691 0.651825
4198 1 1 9.47742 9.96853 4.36619 1.4218
1069 1 1 12.3211 8.69199 2.42664 0.886684
2814 1 1 9.1689 10.4762 2.81243 3.11701
1385 1 1 9.77875 10.7342 1.87935 1.01708
6693 1 1 11.9694 10.9129 3.19634 1.4824
386 1 1 10.9212 11.1246 1.9021 0.461685
7913 1 1 15.4342 9.71968 1.56324 0.449265
374 1 1 12.9467 9.27463 3.37496 0.775502
818 1 1 14.2282 11.154 1.78563 1.77065
1234 1 1 17.7606 12.1389 5.27968 0.915625
7800 1 1 16.8333 9.90358 0.859394 1.01491
336 1 1 17.9349 13.1924 0.676963 0.358341
7089 1 1 17.87 11.656 4.18871 2.19944
259 1 1 1.35575 11.1186 3.66066 2.67424
245 1 1 0.547675 13.1207 3.82537 1.80184
7811 1 1 4.31881 11.213 3.9412 1.52295
584 1 1 5.00327 12.222 3.84046 0.517313
704 1 1 4.62035 11.9276 2.65889 0.536251
769 1 1 8.41719 13.7875 1.42461 0.91292
6646 1 1 2.44436 13.6062 3.61754 0.226412
815 1 1 5.82019 14.689 0.80222 3.70614
1542 1 1 8.3526 12.4588 1.86239 3.52886
7704 1 1 9.57786 12.422 3.06 2.12714
1475 1 1 8.07415 12.7758 3.6454 6.6666
7459 1 1 7.1328 11.5862 3.42303 1.52352
563 1 1 9.01337 11.5936 2.29953 0.338373
734 1 1 9.8108 13.3187 4.54523 1.80879
6723 1 1 11.1287 11.9881 0.815628 2.73148
7004 1 1 10.771 9.9258 1.27765 4.41399
7834 1 1 12.3934 12.6779 2.87537 2.12948
2150 1 1 11.2623 11.0982 0.0261835 6.6294
627 1 1 15.8997 12.2182 2.52062 1.07533
1514 1 1 15.1516 12.8161 0.173939 3.29844
712 1 1 14.4195 13.6923 6.99048 1.50125
234 1 1 17.6531 14.538 2.63598 0.665427
1082 1 1 0.275847 11.1653 1.69835 1.28798
1971 1 1 1.94441 12.6156 3.34019 2.0899
6459 1 1 4.30172 12.9235 4.03584 2.42777
7060 1 1 4.30782 13.4427 1.22462 0.634115
6600 1 1 6.42751 13.1835 2.38101 0.800518
487 1 1 7.07896 14.0531 1.64267 0.299816
365 1 1 8.0117 14.0587 2.85334 1.7101
53 1 1 6.6957 14.3773 3.9109 0.704846
1165 1 1 10.1288 12.6061 0.964199 0.307437
7984 1 1 10.1419 13.8502 0.313838 1.3311
286 1 1 11.3111 13.6234 0.177002 2.05051
416 1 1 10.496 13.3407 1.8455 0.386792
6750 1 1 14.4597 13.026 3.46272 0.932214
1187 1 1 13.2146 11.3248 1.47623 0.832017
1904 1 1 13.8133 13.5493 2.84763 1.07017
7444 1 1 16.19 14.5244 2.29766 0.939204
375 1 1 16.0894 15.5572 0.541609 0.274698
1282 1 1 1.85496 15.3396 1.06684 0.222655
1561 1 1 3.93905 16.0416 1.64397 0.253234
785 1 1 3.7713 15.0495 1.73471 5.19938
504 1 1 5.82735 17.1514 1.58025 0.7561
1527 1 1 5.65109 17.0968 0.476518 1.87108
2046 1 1 7.71548 16.6834 3.99533 2.80012
7489 1 1 6.12034 14.1839 1.94471 0.697998
885 1 1 6.13236 14.2538 3.06395 1.17831
902 1 1 6.55265 16.8573 4.84048 1.03731
1940 1 1 7.34379 15.6249 4.08016 0.896282
2224 1 1 12.1527 17.8297 2.05116 3.13965
961 1 1 7.03265 14.7331 0.900742 0.846501
7893 1 1 11.031 14.7724 3.47617 1.33587
7757 1 1 15.2708 15.4094 1.58747 1.74055
93 1 1 16.114 14.1647 3.6146 4.81825
1077 1 1 16.0065 13.3868 2.50811 0.143914
1614 1 1 18.4419 15.3384 3.10913 1.4218
7951 1 1 18.7797 18.0752 0.329497 1.45734
7116 1 1 18.2378 17.2397 2.30337 0.270437
439 1 1 2.45158 13.7892 1.33385 1.87302
1634 1 1 3.12083 16.7749 2.05253 3.43696
7934 1 1 3.51674 17.3021 2.85975 0.0430877
763 1 1 6.51524 17.1108 2.65367 0.979349
7620 1 1 10.3085 15.1819 1.22681 1.77859
1196 1 1 9.62451 18.5839 1.01777 0.781488
338 1 1 10.5495 16.5391 4.23571 0.13154
1167 1 1 11.8793 15.6366 2.42341 0.764723
7163 1 1 14.1492 15.5829 1.97871 1.94803
820 1 1 13.1546 14.7411 2.53695 2.07246
1308 1 1 13.8867 17.4205 0.941125 1.63222
1479 1 1 14.3439 16.6257 2.624 0.278563
1638 1 1 0.552131 16.5146 36.8294 0.0772956
328 1 1 1.49085 1.00232 37.309 0.673794
859 1 1 0.415639 1.079 0.104443 0.358249
611 1 1 2.06833 17.55 4.60222 1.76077
6866 1 1 7.45109 2.53792 1.50925 0.550899
687 1 1 5.42252 15.0535 2.5399 3.15673
7300 1 1 7.04898 0.296662 2.20029 1.62027
1328 1 1 5.81354 17.7009 3.50817 1.35976
96 1 1 7.49983 17.5517 2.22684 0.572199
6079 1 1 8.30353 0.112048 1.33127 3.34125
173 1 1 8.61474 0.479975 35.9264 3.81766
7950 1 1 9.60838 16.5211 0.266044 3.2078
696 1 1 10.0877 17.8114 3.91486 1.67692
1616 1 1 11.0657 18.2012 4.0929 2.17608
20 1 1 13.1806 14.5745 0.78789 1.0654
1588 1 1 13.0799 0.334951 1.97773 0.372078
6872 1 1 15.4166 16.324 2.04219 2.34088
881 1 1 18.3523 16.3924 2.95858 1.50472
1269 1 1 16.8635 18.1276 2.40558 1.08906
7497 1 1 16.6389 17.4179 1.47063 0.449334
7744 1 1 16.2844 18.289 1.2464 3.3775
1607 1 1 18.5637 18.4439 3.71807 2.10504
18 1 1 17.5482 0.354221 3.4855 1.90864
2026 1 1 2.14383 2.15823 2.01396 0.9901
547 1 1 3.6276 0.355675 2.35307 4.38861
1327 1 1 4.53999 0.0656803 4.79648 0.739777
633 1 1 4.03 2.47359 3.95751 0.139642
1738 1 1 3.69034 1.47419 4.75083 0.780705
2126 1 1 7.6924 17.7231 4.05448 1.19791
7982 1 1 8.29984 18.4709 3.09983 2.46132
1168 1 1 9.04846 0.616134 3.59329 0.539888
497 1 1 8.0355 0.472265 2.57983 0.955872
1579 1 1 10.3659 17.5963 5.06846 2.6936
7150 1 1 9.3491 0.638137 4.55736 0.570276
7821 1 1 11.9745 18.4692 3.75193 0.458716
7669 1 1 12.4627 17.7871 4.53754 2.58094
7980 1 1 13.5634 17.5355 5.02416 1.01069
2270 1 1 12.1132 1.34834 4.15765 1.20832
430 1 1 14.4764 1.32489 4.3574 0.570742
1413 1 1 17.935 1.18391 4.56423 0.831314
867 1 1 15.2313 1.59788 5.20768 2.23607
7028 1 1 15.2577 1.52701 3.57129 2.01118
853 1 1 16.2685 2.92702 3.27154 0.133083
1443 1 1 0.738186 1.8071 3.48511 0.21712
879 1 1 0.995937 0.261848 3.42301 0.122732
2030 1 1 3.40027 2.26267 2.66282 2.09531
109 1 1 2.72279 1.85768 4.0735 0.535458
7251 1 1 2.56221 3.31319 4.21998 1.18785
915 1 1 3.19845 2.84403 3.57006 0.592399
1543 1 1 7.58332 2.52064 2.92237 0.228829
1322 1 1 3.75429 3.89999 4.66693 2.08963
7989 1 1 4.71505 3.34412 4.05261 2.24086
454 1 1 8.80061 1.5156 4.42035 0.623764
1466 1 1 9.27732 0.667875 1.82511 1.78432
824 1 1 10.0751 0.765994 3.66612 1.42064
1213 1 1 15.7737 2.2644 2.53438 0.519118
906 1 1 10.4481 17.5827 2.87185 4.40332
409 1 1 12.7827 1.40984 3.40619 3.05775
2075 1 1 12.953 0.320442 4.06063 0.771999
1473 1 1 14.566 0.654655 5.19171 6.84203
1044 1 1 12.1443 2.43531 5.35133 0.400203
1223 1 1 15.8327 3.45763 2.20393 1.61699
387 1 1 13.7066 2.11268 3.57294 2.18784
7601 1 1 17.1672 3.7135 5.04016 2.10788
206 1 1 1.78591 1.15335 2.61392 0.321166
148 1 1 2.11001 0.70568 5.70405 0.170442
874 1 1 17.8974 1.95393 3.85193 0.665125
7280 1 1 1.45167 3.28686 5.24693 1.08783
1374 1 1 0.461898 3.68864 3.5427 0.435655
6648 1 1 3.41022 4.42268 6.49957 1.38662
774 1 1 1.48248 4.55385 5.76596 0.349087
7123 1 1 4.87734 3.00901 1.19202 1.72645
2917 1 1 2.4041 3.46156 2.62015 0.429673
1365 1 1 3.80282 3.72489 2.1815 2.18195
7921 1 1 5.7639 4.92565 5.05489 1.53612
7685 1 1 5.9883 4.94539 3.89709 1.29568
1488 1 1 6.81704 2.89362 3.75681 0.70977
2177 1 1 8.7997 1.79294 1.94309 2.02823
1208 1 1 6.91927 2.96261 5.13346 0.0843529
544 1 1 10.8697 2.22794 3.51835 2.91318
623 1 1 10.3412 18.7684 2.95332 1.98187
7010 1 1 12.272 3.48844 4.74261 2.66274
446 1 1 12.8554 3.61218 3.80444 0.882169
2139 1 1 15.1814 4.17737 3.08406 0.450297
2867 1 1 13.0525 1.19737 4.78265 4.1342
1539 1 1 15.5261 2.34516 4.4119 0.63523
1422 1 1 17.0394 3.34186 6.06807 1.73334
7914 1 1 14.934 2.88051 5.08709 0.767778
828 1 1 14.3094 2.38864 4.4835 1.87815
982 1 1 18.2151 3.93609 3.83189 1.25239
1041 1 1 17.5594 2.59275 2.15673 0.43053
47 1 1 18.5033 5.52622 5.55698 0.17005
1659 1 1 0.772351 5.39678 4.87861 0.899814
15 1 1 1.38169 6.08217 4.27889 1.07173
548 1 1 1.79505 7.11252 6.56721 1.12899
7924 1 1 4.52516 4.83134 4.97998 1.5664
125 1 1 6.93698 5.01648 0.572718 1.41782
1723 1 1 3.81355 5.29528 1.4767 0.733315
98 1 1 8.28181 5.55334 4.98034 1.86127
2318 1 1 7.37875 5.42537 2.7448 0.277407
796 1 1 10.8107 5.17717 3.06996 0.204862
6136 1 1 8.93571 2.2486 3.88009 0.820528
7666 1 1 11.2596 2.93993 4.32651 3.84634
183 1 1 9.44261 3.38855 2.64448 1.33604
1203 1 1 15.5191 4.62655 3.9504 0.017871
2017 1 1 12.9863 9.152 4.39653 5.4519
7273 1 1 15.4315 4.90927 0.929277 0.955269
7998 1 1 16.2322 3.22144 4.94481 0.458569
75 1 1 18.7298 3.36585 4.62216 0.16305
6396 1 1 1.02693 5.37398 3.19911 0.302444
1002 1 1 2.23698 5.78407 3.60303 0.429567
6848 1 1 2.70651 9.00761 3.50291 0.98412
1883 1 1 5.04436 5.78854 4.34251 1.92167
7879 1 1 3.65971 5.86222 2.84771 1.43395
1717 1 1 4.60271 6.80296 3.35561 1.52026
6767 1 1 5.53989 7.3013 2.83638 5.08272
1864 1 1 3.10982 6.3719 1.69105 0.828263
131 1 1 6.2088 6.68518 4.84897 0.555215
188 1 1 7.43301 5.09297 1.74577 2.31542
1217 1 1 7.57797 7.55414 4.38709 0.398642
7782 1 1 9.05628 5.27265 4.31788 0.124928
564 1 1 11.2527 6.23716 1.56646 1.71046
6538 1 1 11.4066 6.43998 4.81844 0.377878
1927 1 1 12.063 6.19776 3.57078 0.842057
1051 1 1 15.0095 6.38318 4.94774 3.6474
7611 1 1 14.0217 8.83611 4.73979 5.75965
285 1 1 13.5424 6.19115 4.06015 3.36036
5812 1 1 15.8866 4.58897 2.41134 2.33754
108 1 1 14.5435 5.90962 2.96446 0.0188522
602 1 1 15.6808 5.664 3.43867 0.285152
1338 1 1 0.242506 6.95272 2.69384 1.06279
928 1 1 17.9273 5.60082 4.41378 1.45725
1399 1 1 0.321357 7.2408 1.76307 2.61546
2747 1 1 18.0718 7.81412 4.70192 5.24785
996 1 1 2.27831 9.85486 4.73597 2.06207
357 1 1 3.63507 9.4703 3.86493 0.876465
626 1 1 2.97165 7.6624 3.88332 1.29809
983 1 1 6.94346 9.71292 3.81897 3.81324
568 1 1 7.48113 6.76914 2.50206 0.520124
344 1 1 7.45226 8.84482 4.23728 2.31114
2980 1 1 8.80073 7.26231 5.03507 1.61451
7322 1 1 8.04972 6.15927 3.927 2.81972
1784 1 1 10.3683 6.60988 4.68759 0.907016
648 1 1 11.0812 8.62886 6.12963 0.705282
738 1 1 12.0894 8.27776 1.20758 0.534223
1802 1 1 13.3837 8.65413 1.93188 1.38608
1513 1 1 15.0932 8.97115 5.41232 4.47412
596 1 1 14.47 8.97624 2.64087 1.46863
235 1 1 16.3757 7.3199 1.74081 0.398152
240 1 1 17.582 6.70071 3.85894 1.27582
6875 1 1 18.3155 7.66517 1.08162 3.05224
2798 1 1 1.31578 9.71954 3.97654 1.55585
134 1 1 2.34787 10.1778 3.43413 0.962913
440 1 1 3.00555 9.60957 2.71397 2.92032
1417 1 1 4.91209 8.49792 6.40524 1.59485
1001 1 1 6.90507 10.6541 3.07337 0.391555
604 1 1 5.67928 9.08837 2.47311 1.6771
1211 1 1 9.44993 8.74467 3.34449 1.74409
95 1 1 8.06581 10.9206 3.70038 1.01679
345 1 1 10.2088 8.25838 3.82816 1.24193
1460 1 1 12.1708 7.69184 2.02645 1.86851
7867 1 1 12.259 9.10379 5.38572 4.69817
241 1 1 12.078 9.87286 3.97272 2.52226
1250 1 1 13.9225 9.89526 3.1486 0.307669
2587 1 1 15.3539 8.93907 4.14804 0.528036
790 1 1 15.3866 9.58847 2.95463 0.227708
7470 1 1 14.7304 11.129 4.55356 0.3866
6561 1 1 18.0457 7.2427 3.0638 1.60972
7432 1 1 18.8307 9.3835 2.48423 1.57154
1113 1 1 15.8839 7.7152 6.30431 4.37617
863 1 1 1.0103 11.272 5.29296 2.43959
7721 1 1 5.01859 8.90136 3.97903 1.6387
1093 1 1 0.76511 11.9211 3.38549 0.838334
7474 1 1 1.5026 13.0772 6.12147 2.7925
399 1 1 3.6665 11.2131 2.97976 1.63526
2882 1 1 5.49901 9.70368 3.69009 2.9682
970 1 1 3.39607 10.8178 4.44271 1.36006
7862 1 1 3.03315 12.1228 5.63216 2.35235
2265 1 1 8.0088 9.85338 4.03138 1.27503
1727 1 1 6.63823 12.7503 3.42066 1.31779
478 1 1 6.3787 11.82 0.971155 1.00964
825 1 1 10.1369 9.40573 2.24787 0.807194
1296 1 1 8.95444 9.10272 2.21802 2.47596
7573 1 1 9.75597 7.87318 1.0116 0.665536
378 1 1 9.68795 11.9613 1.64286 4.77634
1332 1 1 11.1877 7.69559 3.17262 2.05086
1438 1 1 13.5861 11.6315 3.76647 1.31211
7979 1 1 13.624 11.5338 5.05142 0.983785
1189 1 1 16.1317 11.4746 4.65794 3.6219
1072 1 1 14.0523 10.2975 4.29523 2.39497
1143 1 1 16.0626 10.4533 2.50468 1.23665
1728 1 1 18.7018 8.57766 3.97654 3.70336
622 1 1 17.4217 10.0704 3.95612 4.85034
1280 1 1 17.9056 13.8125 5.44141 2.57675
1895 1 1 3.9864 16.1521 3.16331 0.587139
7863 1 1 18.647 13.1227 6.20875 1.16114
800 1 1 4.71605 15.4981 3.45529 1.37976
7011 1 1 0.0791955 14.415 4.51688 0.601786
1178 1 1 6.79852 10.7404 4.16847 1.24656
1163 1 1 2.24061 15.2086 4.98373 1.45474
1448 1 1 5.6811 13.0305 3.56097 1.2482
699 1 1 6.79184 13.3971 4.23097 2.48572
163 1 1 8.79723 13.496 3.25191 0.214144
1226 1 1 9.05904 12.4559 4.16966 1.00902
823 1 1 9.3411 12.9711 2.07045 0.159618
1504 1 1 9.46036 11.2949 6.2138 0.31835
7138 1 1 14.6348 12.0524 2.26744 0.912063
1799 1 1 12.899 15.0295 3.76632 1.28529
991 1 1 14.5309 10.6074 2.83916 0.641208
303 1 1 17.2274 12.6162 3.72076 3.33982
302 1 1 14.9965 13.6048 5.1857 1.75054
6563 1 1 16.9425 11.3159 3.99825 0.227348
1079 1 1 18.0077 12.4718 2.905 0.628237
918 1 1 18.622 13.8011 3.47259 0.87481
7754 1 1 17.9824 14.9461 5.75133 0.0429234
642 1 1 0.680055 16.6777 3.38169 2.50978
7051 1 1 3.37678 13.8719 2.51204 3.26453
7515 1 1 0.37565 13.9099 5.43794 2.12858
6531 1 1 4.40885 15.9714 5.64944 0.687361
6536 1 1 5.18696 13.5214 6.15225 3.19618
7210 1 1 3.79414 11.7372 4.89825 0.00136173
7139 1 1 5.85134 13.72 4.54367 0.459635
221 1 1 8.95134 15.1702 4.51096 1.2042
1848 1 1 10.3983 12.7857 2.71584 0.395273
284 1 1 9.35798 17.4636 2.70263 2.63214
64 1 1 10.0075 11.4213 2.82375 0.265808
1100 1 1 10.975 11.437 4.12575 0.819937
7705 1 1 11.6283 13.6123 2.07156 1.21507
854 1 1 16.5277 12.2493 5.23458 1.8811