ITEM: TIMESTEP
2900
ITEM: NUMBER OF ATOMS
8000
ITEM: BOX BOUNDS pp pp pp
0.0000000000000000e+00 1.8820720577620570e+01
0.0000000000000000e+00 1.8820720577620570e+01
0.0000000000000000e+00 3.7641441155241139e+01
ITEM: ATOMS id mass type x y z v_temp
351 1 1 0.621511 0.845401 1.95568 0.341257
1198 1 1 4.4114 18.4603 0.420773 0.371587
1116 1 1 5.02871 1.27981 37.6246 0.689822
6280 1 1 1.49508 0.497133 37.244 2.10026
6076 1 1 4.52667 18.4434 33.3958 2.98325
7613 1 1 5.33634 0.100264 1.44111 2.08281
775 1 1 9.11641 1.65611 1.21094 0.131591
6363 1 1 6.20599 2.66459 37.604 3.04079
175 1 1 8.18129 17.3359 0.385722 0.16816
934 1 1 9.6999 1.4838 37.3327 2.80742
1416 1 1 7.5952 18.0815 1.34881 1.29606
6582 1 1 12.2843 16.862 2.34724 0.55283
1139 1 1 12.0641 0.359944 36.5054 0.3911
7873 1 1 9.73324 16.7017 36.6709 1.04131
352 1 1 15.9107 0.0580899 35.8248 0.700141
1377 1 1 14.278 3.67229 1.4512 1.51735
7568 1 1 11.9937 18.5615 37.5482 0.397932
1186 1 1 15.5262 16.626 2.52629 1.25166
1265 1 1 14.6585 1.74927 37.1834 1.09728
126 1 1 16.7704 0.260984 3.04777 2.4096
791 1 1 17.785 1.79032 37.6333 0.617054
1999 1 1 18.731 15.4099 1.62825 1.64189
383 1 1 0.693575 2.94877 1.86536 1.39309
7930 1 1 0.121152 1.48391 0.846054 4.54533
6845 1 1 16.2896 1.54516 1.28987 0.754187
31 1 1 0.568656 3.84453 4.4788 1.38036
1739 1 1 2.76087 0.52883 0.214465 0.403086
7604 1 1 3.64343 1.4554 0.130041 2.17965
155 1 1 5.69274 0.471596 37.2208 2.16676
7785 1 1 5.51172 3.3464 2.84761 0.554753
1446 1 1 8.31745 0.730297 0.104737 1.08175
217 1 1 8.33577 4.48335 0.810005 2.78056
418 1 1 9.25372 3.40182 2.90556 1.62129
726 1 1 10.3863 3.06535 2.85825 1.52589
2348 1 1 11.6249 1.67773 2.46967 0.217465
1333 1 1 9.66584 2.36395 0.734256 2.43324
515 1 1 11.2932 1.26147 1.42451 0.0507338
7745 1 1 12.1669 0.675111 0.557551 1.92832
1270 1 1 12.5423 1.75312 1.81313 0.998917
6850 1 1 13.9447 2.32291 0.212374 0.171552
1037 1 1 17.3036 2.58848 0.971167 1.29938
1315 1 1 16.9853 17.6083 37.2551 3.39239
6006 1 1 1.84199 3.29978 0.745798 1.56881
508 1 1 18.4784 2.80814 0.860746 2.10458
1045 1 1 0.379612 3.91046 1.20678 2.18632
875 1 1 1.16952 8.0568 36.2376 5.90998
7718 1 1 2.43079 5.0107 0.0433371 2.07426
6152 1 1 5.33086 6.20173 0.870626 0.967469
1348 1 1 5.49765 3.59096 4.17983 2.27352
6026 1 1 4.60445 5.61245 3.73712 0.207441
1850 1 1 6.35533 3.60149 1.79608 0.381623
1381 1 1 8.12083 5.94096 0.668574 1.35847
7861 1 1 8.09956 3.31203 2.37088 4.97241
7032 1 1 11.917 3.23387 0.905454 1.84202
1661 1 1 10.1239 2.4618 3.73537 0.401798
7588 1 1 11.3902 5.58037 35.8127 0.95495
6060 1 1 10.8453 3.63162 3.48103 1.03541
1806 1 1 13.8439 3.55186 37.4698 0.735896
7155 1 1 13.3959 5.06686 1.6961 4.58169
437 1 1 10.9081 3.43347 0.838123 0.151417
7301 1 1 14.9501 0.737129 0.275471 4.11017
2221 1 1 17.2911 2.42581 35.5184 1.15187
7468 1 1 13.6333 3.20178 1.96335 1.26843
5355 1 1 16.2443 2.68539 0.506227 0.402913
223 1 1 16.9935 5.09333 0.382775 0.170955
2033 1 1 2.45447 4.1907 4.77838 1.01784
1401 1 1 0.914781 5.83767 34.6984 2.47707
7697 1 1 3.16831 3.77361 0.453488 0.0117961
936 1 1 2.79956 5.32856 1.64794 4.00873
7904 1 1 4.59659 4.5904 35.6221 0.638314
582 1 1 7.50767 5.38507 36.4587 0.680328
6922 1 1 9.01697 3.27168 1.57405 0.23602
7748 1 1 7.08283 5.08346 35.6124 1.03394
7387 1 1 7.15121 6.13923 0.911162 2.58215
6703 1 1 10.6757 2.87037 37.5246 1.00082
6551 1 1 11.846 5.11132 0.819296 2.64074
7408 1 1 9.80956 5.50937 37.1198 0.612428
6044 1 1 12.7359 6.57113 1.20207 1.16538
271 1 1 14.0438 5.95233 2.06076 0.123707
7320 1 1 12.6883 2.79562 35.2221 0.519425
7115 1 1 12.9222 4.85023 0.467751 1.31998
1329 1 1 14.5983 6.01398 35.4081 0.752617
103 1 1 15.602 6.08505 0.472359 0.253237
7091 1 1 16.3828 5.26279 36.7575 0.335488
7717 1 1 0.630672 9.57175 1.58884 0.822092
6161 1 1 1.86198 7.11604 36.2188 0.202735
137 1 1 0.137785 6.45073 1.41645 5.39939
7507 1 1 1.80542 5.31933 36.2123 0.761847
1409 1 1 0.301311 5.00932 1.66084 0.702923
7942 1 1 1.27286 8.52736 37.6004 3.87416
6971 1 1 4.63757 6.87395 2.27051 1.25635
72 1 1 1.16246 7.33472 1.5298 0.409584
190 1 1 3.8832 6.79825 1.47653 4.42495
6605 1 1 4.98472 5.92482 2.29856 1.10842
7215 1 1 4.73485 4.17176 3.2516 0.528151
294 1 1 6.37399 7.87264 37.59 1.44013
7944 1 1 2.92917 7.37094 2.55951 3.22367
5747 1 1 6.14808 5.45834 3.86597 3.05437
429 1 1 7.49105 9.32052 0.264001 0.174235
7094 1 1 9.08579 7.80669 2.88297 1.49648
21 1 1 8.49928 7.47015 0.0592781 0.750582
61 1 1 10.2256 4.37395 1.36703 0.736724
6619 1 1 13.4343 7.61153 2.64769 1.87748
550 1 1 12.5726 6.69185 3.0768 2.12483
533 1 1 8.406 5.39609 3.69837 1.62917
1664 1 1 13.486 7.09904 0.330814 1.4213
486 1 1 15.125 6.55192 2.41614 1.16359
591 1 1 13.7737 6.67928 4.07573 2.7942
164 1 1 12.5361 4.66796 2.11277 1.72377
762 1 1 17.3826 9.12138 37.4965 2.00247
6476 1 1 14.5208 7.42727 0.0946745 0.341223
5857 1 1 17.5744 8.24437 0.567454 1.79648
354 1 1 7.13446 6.81583 0.027494 0.659815
6987 1 1 2.3296 5.98511 0.707455 2.07736
6874 1 1 6.4167 6.8929 1.82338 0.647363
1415 1 1 5.05319 8.06519 0.560505 0.437992
615 1 1 7.1148 9.37559 2.21306 0.495602
7740 1 1 7.6346 8.63664 36.4542 0.817255
7958 1 1 11.5029 6.65125 36.1338 1.13793
973 1 1 10.9745 6.66277 1.33522 1.08891
6463 1 1 7.64578 8.39723 37.5039 1.53124
91 1 1 15.3755 7.78332 36.4621 0.845056
1193 1 1 13.065 8.03162 0.495794 0.676113
276 1 1 15.3936 7.35814 0.704184 2.00673
5649 1 1 0.984989 9.52283 0.348935 1.15016
371 1 1 16.8266 6.23955 37.1247 0.529247
1360 1 1 0.41304 7.52312 0.808874 0.319079
6196 1 1 0.787409 8.55881 2.5805 0.70334
6762 1 1 18.1676 13.8438 2.79531 1.79671
6126 1 1 5.75225 11.6658 35.7917 0.124533
834 1 1 3.103 10.1802 3.16276 0.757275
7326 1 1 5.66102 7.82724 1.73963 1.43916
1681 1 1 4.31084 7.81441 1.83234 2.44262
6584 1 1 7.11872 10.2747 1.14908 0.520639
7065 1 1 5.92937 9.89725 1.1815 2.31241
7943 1 1 11.0367 9.9017 0.635749 0.629353
1781 1 1 7.41401 6.33302 1.87844 0.185201
6497 1 1 9.52123 8.82586 0.381734 1.80521
7866 1 1 10.2896 9.06839 37.1236 0.171361
6699 1 1 12.3883 7.8985 36.8331 2.85659
574 1 1 11.5112 11.9831 2.48042 0.67752
7266 1 1 13.5067 12.5515 2.24084 3.73822
7983 1 1 15.6421 7.44633 2.90664 1.12836
7021 1 1 14.9925 9.20086 0.788489 1.53796
6599 1 1 0.632739 10.8041 35.043 2.3813
6159 1 1 17.1481 7.90542 1.54961 0.731485
86 1 1 2.21135 7.7774 0.259474 0.766822
7621 1 1 3.96929 13.1205 1.55072 0.536597
7967 1 1 1.59101 10.7387 1.43338 1.39487
7047 1 1 2.42973 10.084 1.14678 1.07157
6656 1 1 2.42213 11.4072 34.9826 0.513862
955 1 1 9.11475 10.0657 2.70957 1.31266
6842 1 1 6.11084 11.6375 3.21 1.46354
7002 1 1 8.84816 9.73383 0.676137 0.878791
1790 1 1 7.45585 10.3704 0.16775 2.85853
6380 1 1 5.0134 8.06014 34.7976 0.195691
6933 1 1 8.11534 8.03295 1.03868 0.357267
721 1 1 8.72608 8.84757 37.0962 0.822059
6752 1 1 13.8083 11.0236 36.8573 1.35586
6527 1 1 13.6718 13.2708 37.1891 1.04355
38 1 1 13.8336 9.7499 3.07082 0.565253
678 1 1 9.77057 10.1645 0.0923374 0.535563
423 1 1 13.1531 11.7501 0.34038 0.907424
1074 1 1 14.1615 8.2919 36.8657 6.184
1068 1 1 16.5623 12.2118 35.9784 0.00601181
969 1 1 14.2893 11.182 0.87773 2.89959
1349 1 1 0.0659967 9.92778 0.241939 0.525571
634 1 1 18.4003 11.6202 1.11449 0.362935
7772 1 1 18.7599 13.1823 1.83434 1.07105
7836 1 1 1.68661 13.1928 35.3406 2.02708
7855 1 1 2.64614 12.3395 35.8765 0.0781674
549 1 1 1.72857 11.6572 0.985226 0.154058
773 1 1 2.52777 10.4147 2.20144 1.2537
7056 1 1 3.35214 11.0449 2.48859 0.83803
8000 1 1 4.11242 9.44968 1.30111 1.18103
7854 1 1 3.32019 8.44904 1.84203 0.120709
1432 1 1 8.9467 13.5691 2.39742 1.65802
829 1 1 5.68606 13.221 37.1093 3.3841
10 1 1 8.67051 11.9531 36.6666 0.307416
6399 1 1 8.45932 15.081 0.505819 0.922813
6939 1 1 11.436 12.4544 36.1611 0.951591
1103 1 1 10.9464 16.3883 0.664763 0.278337
236 1 1 8.07641 13.6868 36.9632 1.98566
7548 1 1 16.1393 9.52259 37.4578 0.0151646
2320 1 1 11.9263 12.6341 36.9752 1.58891
6590 1 1 15.0033 15.5922 4.27454 1.36775
7993 1 1 15.3362 12.4754 34.6837 2.73187
2353 1 1 15.3341 10.8843 1.65592 1.26792
7670 1 1 0.255268 13.0762 3.05736 2.49434
1676 1 1 16.9313 12.381 3.31124 1.67897
1567 1 1 17.7646 12.9139 37.6353 1.15578
7947 1 1 1.59683 17.4713 1.6489 3.62322
962 1 1 18.338 13.4289 0.783913 2.08546
4804 1 1 2.76217 13.7664 2.32793 0.41607
7957 1 1 5.09787 16.4263 2.38434 1.37614
1350 1 1 3.24447 13.4301 34.7969 2.87887
7217 1 1 4.76837 14.7293 2.26518 0.529866
6232 1 1 3.65175 12.1384 1.7939 0.360325
287 1 1 4.96908 13.9103 36.9213 3.14
7248 1 1 3.72901 16.341 0.290447 2.0489
239 1 1 7.99882 15.8751 1.83267 1.84891
1144 1 1 10.283 14.9129 0.174876 1.3155
1295 1 1 10.3346 13.8602 3.13634 0.733855
976 1 1 12.6474 11.3899 2.76426 1.15143
7680 1 1 13.1208 15.5764 1.14929 2.40386
297 1 1 15.5557 14.3257 36.4131 0.276874
7052 1 1 14.8093 15.8072 2.11737 0.639806
7853 1 1 18.2755 13.6043 36.8048 0.222563
2409 1 1 17.7168 14.704 37.4872 1.98094
7338 1 1 16.3084 13.8577 2.15558 3.31081
1529 1 1 16.1313 16.2375 1.46341 0.531916
7926 1 1 1.91151 15.0208 36.0492 2.12941
686 1 1 3.4908 18.5946 3.59986 2.74025
7101 1 1 2.85532 17.3851 36.1662 1.27291
7454 1 1 2.84569 16.3805 35.3115 0.260107
558 1 1 4.23612 15.317 6.0977 1.50974
1481 1 1 4.73381 16.8346 37.1659 0.318271
844 1 1 5.69962 14.1131 3.15222 0.573527
1210 1 1 6.95534 13.9976 0.947995 2.0272
7891 1 1 10.1766 15.8992 3.9284 3.78655
7180 1 1 12.1859 13.4291 3.76467 2.21478
7543 1 1 13.8688 16.7 36.856 5.41768
389 1 1 12.6373 16.3647 37.0377 0.241327
432 1 1 13.6357 15.4491 3.42443 0.824312
653 1 1 14.8618 18.8139 2.00133 0.977361
393 1 1 15.6804 13.2633 37.3209 2.82159
7390 1 1 16.8223 16.5597 34.9713 0.810975
1406 1 1 17.09 15.4338 1.8378 0.559895
579 1 1 16.0253 16.5851 37.4038 1.6373
7451 1 1 0.396328 17.2347 2.69901 1.06782
1569 1 1 2.48154 18.4471 35.1304 2.45735
757 1 1 0.0248516 16.2125 0.688902 2.22553
7569 1 1 5.6243 14.115 36.1619 2.11955
1729 1 1 6.46649 16.2248 2.47011 2.5947
605 1 1 5.98258 17.8129 0.699115 1.92787
1995 1 1 5.33101 15.8683 0.398884 0.783302
7303 1 1 6.39024 16.6531 1.37749 0.272174
1582 1 1 4.98671 17.4152 34.9999 0.570918
13 1 1 7.91336 17.9359 36.2633 6.9353
1206 1 1 8.83173 18.7255 35.4296 0.881709
6851 1 1 8.76489 16.0564 37.5866 1.15463
7452 1 1 11.6901 17.7716 2.61604 0.210869
7149 1 1 10.4032 1.10735 0.739725 2.34466
433 1 1 11.6146 14.0646 2.66832 0.921135
7341 1 1 14.2966 15.7814 35.7014 1.41487
1110 1 1 14.9114 16.1706 3.31001 1.54814
356 1 1 16.8148 16.3458 36.5197 0.92096
629 1 1 14.7624 15.3002 0.405199 3.36189
1042 1 1 17.9099 16.3115 1.12007 0.558728
5999 1 1 0.265556 16.1738 35.3663 1.53411
7892 1 1 1.43564 16.1826 36.1576 0.52992
129 1 1 4.20561 0.486324 35.1967 0.535452
6688 1 1 2.79371 17.5534 3.21536 0.587707
692 1 1 4.13628 0.708185 1.45472 1.75096
6713 1 1 3.75314 18.1069 36.201 6.25285
7404 1 1 2.74309 14.8287 2.32101 2.2949
835 1 1 3.76094 15.2294 35.5127 2.94089
6835 1 1 4.84123 15.3706 37.0117 1.12597
566 1 1 7.0854 0.628185 37.2394 0.128827
6914 1 1 8.60307 17.035 36.559 0.16165
5985 1 1 10.8153 16.816 37.2579 0.772372
472 1 1 13.5014 16.5563 0.834238 2.8405
7672 1 1 16.666 15.6196 0.0371774 5.45564
2287 1 1 17.3538 1.26052 35.9953 1.53459
6092 1 1 12.023 16.7111 0.187134 1.48002
7106 1 1 18.4447 16.7989 33.8751 4.18269
7202 1 1 17.8246 1.83286 1.1452 0.776107
2662 1 1 18.1686 17.2343 0.118053 5.37395
7261 1 1 18.6782 14.4193 0.550818 0.161806
194 1 1 18.7699 1.64914 2.61762 0.654839
954 1 1 0.729403 16.2663 1.86142 0.19634
643 1 1 1.17241 4.47075 1.8472 2.33906
7818 1 1 6.5509 1.33744 2.72339 0.166302
3146 1 1 5.70261 1.62474 36.8891 1.18357
1279 1 1 3.54221 1.48152 1.15625 0.24971
7166 1 1 5.95572 0.693209 0.615062 0.0819112
1140 1 1 8.43882 0.871937 1.25141 0.558979
895 1 1 8.34178 18.6566 1.05509 0.84116
700 1 1 11.5264 1.30018 4.6739 0.427801
6986 1 1 9.62384 18.2065 36.1714 1.86039
1708 1 1 9.85808 15.2444 4.49564 1.35147
505 1 1 12.9124 0.648845 1.20269 2.99669
2106 1 1 12.6433 17.3409 1.2044 2.07759
640 1 1 11.5568 15.6688 3.71838 0.0768631
7440 1 1 15.1916 1.87745 1.51784 0.825751
1928 1 1 17.4933 18.8048 2.36725 0.86566
1672 1 1 18.3004 0.872138 1.53052 0.67716
7992 1 1 0.709892 5.97683 3.80594 0.396926
7938 1 1 1.77245 5.22344 1.45944 0.0846504
656 1 1 4.43458 3.08422 3.95166 2.19331
489 1 1 2.97929 3.3124 1.91697 0.499411
1309 1 1 6.67723 2.75744 2.45255 0.532601
6942 1 1 7.7575 0.24671 35.656 1.08382
7535 1 1 9.56038 1.71991 2.52236 2.29462
7332 1 1 11.171 1.48612 36.8139 0.529837
6477 1 1 8.40814 3.07717 3.48246 2.90628
94 1 1 9.6733 18.5812 2.31089 3.44926
6659 1 1 10.1662 0.87085 1.73893 1.79329
82 1 1 7.94511 3.93478 3.35168 0.433074
1993 1 1 9.9409 17.8138 1.67304 0.362145
511 1 1 11.8601 16.5684 1.24338 1.19616
1339 1 1 10.953 0.743252 2.55542 0.667498
122 1 1 9.96417 16.9989 0.358707 0.290445
3071 1 1 14.4166 2.66163 4.25397 0.814839
1183 1 1 14.1515 1.76324 1.08674 1.82128
1591 1 1 17.9716 2.48341 2.51752 0.280967
149 1 1 0.0278657 2.05478 1.78029 0.339037
1020 1 1 15.3951 1.75292 0.347024 1.78238
7088 1 1 18.1145 18.669 0.858797 1.51489
7841 1 1 2.28592 4.78373 3.18368 0.39796
366 1 1 2.03241 4.26242 0.783738 0.0858938
406 1 1 3.87364 3.84235 1.43832 1.8913
509 1 1 1.5076 3.67915 3.87094 0.479049
2824 1 1 2.12167 3.04334 37.3614 1.40212
3 1 1 5.69239 5.31912 2.63999 1.55998
1237 1 1 4.67647 4.05036 2.21525 0.364627
7503 1 1 4.95772 4.88808 0.155836 1.1201
7663 1 1 9.50007 4.91343 4.06988 0.681992
7653 1 1 8.27075 3.58344 0.425799 1.34376
661 1 1 6.64105 3.57971 3.21615 2.96258
56 1 1 7.24206 1.16945 1.31839 1.21455
570 1 1 8.74629 6.43966 4.35882 2.02633
3337 1 1 12.1103 2.20782 0.864602 2.21122
1648 1 1 11.7279 4.54378 3.87467 3.62159
980 1 1 11.0043 0.116087 1.85943 0.501156
1239 1 1 12.9662 4.22487 4.47802 1.18232
6241 1 1 14.7579 2.72449 1.12662 0.425794
651 1 1 17.4795 5.39149 2.34573 3.47859
115 1 1 0.1036 3.8775 2.31068 0.270601
7937 1 1 0.506157 2.22851 3.6043 1.00833
314 1 1 18.3619 4.69637 2.52094 0.10262
7284 1 1 0.769858 4.98009 2.80506 1.24003
7631 1 1 4.79876 6.34991 6.12079 0.461933
68 1 1 18.7126 4.52062 37.5734 2.83117
7660 1 1 2.30519 4.26318 1.9632 1.57528
1714 1 1 4.41932 5.76505 0.304046 0.974238
7643 1 1 9.34859 7.92525 0.971248 0.228266
7644 1 1 10.8638 4.75934 3.09185 2.70934
553 1 1 10.1908 7.05605 3.12981 1.55911
7348 1 1 10.0679 5.42038 1.94827 0.492107
588 1 1 12.5928 5.69689 3.72203 0.150969
1826 1 1 14.2207 3.7902 4.57541 0.988242
1833 1 1 12.6281 7.95116 3.37278 1.7149
469 1 1 14.2473 6.45606 0.0595952 3.39615
7358 1 1 17.0944 4.67646 1.63798 0.161257
802 1 1 18.2671 5.78335 3.06312 2.65854
7659 1 1 16.4318 6.50766 0.961969 2.47413
3092 1 1 16.7344 6.29859 1.9516 1.61734
1287 1 1 17.776 9.32159 5.17482 0.702037
5817 1 1 5.7918 7.63559 3.24087 1.579
7242 1 1 1.87309 8.33207 3.2624 0.143255
7803 1 1 2.83422 6.55336 1.55371 1.89174
7738 1 1 6.09124 6.91892 0.511676 1.37387
1596 1 1 1.41346 8.52898 1.20011 0.195582
1427 1 1 1.15157 6.22274 1.12345 1.32531
214 1 1 8.31934 4.60215 2.57327 1.64921
1076 1 1 10.257 6.77919 37.0881 5.70554
1369 1 1 8.10861 2.97034 4.46773 1.04379
117 1 1 7.65789 7.22216 3.10926 1.72855
7625 1 1 9.39071 3.5746 0.650879 1.40267
7972 1 1 14.4371 4.8696 5.07411 0.171476
140 1 1 12.8048 7.18921 1.98808 6.60939
7719 1 1 11.6125 5.86845 1.75396 0.530953
7185 1 1 13.6938 4.10376 3.61027 0.319247
1537 1 1 14.1764 6.8382 1.17835 0.126848
7544 1 1 14.1036 5.88086 0.957983 4.83937
6995 1 1 1.96126 10.6029 5.16155 1.70135
6975 1 1 4.33711 9.85528 3.62189 1.29942
1562 1 1 1.8303 6.96113 0.738352 1.64985
926 1 1 18.7456 8.14134 3.25782 1.06508
7472 1 1 6.04428 9.49521 3.20231 0.430223
925 1 1 3.38531 8.3886 3.0718 1.76765
529 1 1 5.99021 9.15442 2.1928 1.88218
1547 1 1 5.11969 11.027 1.0309 1.00794
1224 1 1 6.4779 5.22207 0.838116 3.20207
1194 1 1 7.84631 8.49773 2.8921 0.982285
1107 1 1 11.2951 7.72088 4.23263 5.30148
6566 1 1 9.44716 6.96302 2.23766 3.14907
519 1 1 14.0629 6.10644 4.89285 0.125054
2244 1 1 10.8429 5.29231 0.495261 4.90299
277 1 1 10.4962 8.80121 1.30771 1.33513
5690 1 1 11.9537 7.11482 1.36312 0.734397
543 1 1 12.8875 8.24969 1.60488 0.552769
102 1 1 16.3079 6.43606 2.99111 2.01525
913 1 1 15.3189 7.49581 1.65062 6.58781
669 1 1 16.2834 8.59331 1.88149 0.683235
6675 1 1 17.3433 8.81631 2.54098 0.457565
107 1 1 0.929716 7.59834 3.60002 0.501786
1036 1 1 1.2109 11.801 36.7495 1.22734
178 1 1 2.17861 11.8324 3.72294 0.558722
1863 1 1 5.15064 8.78213 1.55914 3.77777
369 1 1 1.24664 9.99882 2.26558 2.8561
2311 1 1 6.50271 6.92022 4.00197 1.06139
1046 1 1 6.49573 12.5467 1.06395 1.54212
238 1 1 8.77648 10.7425 0.439822 1.3517
985 1 1 7.44486 5.0738 3.64094 1.6082
7538 1 1 9.23067 9.51554 4.39377 2.04969
341 1 1 12.3609 7.76653 4.9811 1.3093
7156 1 1 11.7565 9.83567 3.30556 2.24295
610 1 1 11.8739 9.12213 0.584397 1.50992
1487 1 1 9.47256 10.904 4.03891 1.39555
7945 1 1 14.496 8.24371 0.734016 2.29605
1906 1 1 13.9482 9.13586 1.356 3.61773
79 1 1 16.4852 8.24016 2.97629 1.89546
247 1 1 3.04138 11.1263 3.96741 0.628972
7851 1 1 0.57315 12.4843 2.18477 1.97144
230 1 1 1.14863 9.85228 3.72679 1.22935
300 1 1 0.26253 11.3581 4.88785 0.889235
7966 1 1 18.8111 9.62596 2.57786 0.256641
445 1 1 2.11858 13.2103 5.45336 2.5127
765 1 1 3.62118 9.25621 2.68186 0.48697
340 1 1 4.6893 10.1571 37.4519 2.03862
1264 1 1 4.92007 11.8001 3.99461 1.75497
481 1 1 4.1763 12.1338 2.53732 2.40793
1389 1 1 4.87633 12.3566 5.63302 1.01954
7335 1 1 8.31515 8.47811 1.95527 0.976527
4198 1 1 10.0518 9.00101 5.66221 0.584542
1069 1 1 12.2355 8.7623 2.65661 1.91231
2814 1 1 10.9624 9.78214 1.94322 0.934307
1385 1 1 10.1584 10.1367 1.33358 0.627277
6693 1 1 10.6275 10.2533 3.65921 2.06644
386 1 1 11.5259 10.6144 1.8386 1.78579
7913 1 1 15.3663 9.45748 2.49294 2.20808
374 1 1 13.153 10.0859 2.1451 2.20267
818 1 1 14.246 11.1539 2.38579 0.28247
1234 1 1 17.3695 13.7551 5.23923 0.178031
7800 1 1 16.799 10.9111 0.588342 0.277685
336 1 1 16.9564 13.8262 0.0834563 1.55289
7089 1 1 18.1561 12.3309 4.07128 2.19704
259 1 1 1.04667 12.0274 2.90574 1.04695
245 1 1 2.39686 13.3001 3.16798 1.49037
7811 1 1 4.03918 12.9748 3.94074 1.33025
584 1 1 5.64556 13.2163 5.34693 0.199376
704 1 1 5.30997 12.8292 1.84482 0.653405
769 1 1 7.48324 12.8534 1.69955 2.84568
6646 1 1 2.42543 12.0643 4.75107 0.290144
815 1 1 6.14883 15.6214 0.936691 1.29208
1542 1 1 7.54146 12.2806 37.1851 2.1764
7704 1 1 9.69852 12.6188 3.08821 3.65817
1475 1 1 7.93149 11.442 4.09442 1.87701
7459 1 1 6.8453 12.0353 3.88923 0.504559
563 1 1 7.10214 11.9542 1.77251 0.815328
734 1 1 9.31987 13.5371 3.97747 2.1301
6723 1 1 11.5111 11.5886 0.841117 1.13183
7004 1 1 11.9831 9.68538 1.90254 0.628107
7834 1 1 12.035 12.4774 3.47866 1.85301
2150 1 1 11.8159 11.4464 36.6633 0.711517
627 1 1 15.8427 12.0147 1.31757 2.09957
1514 1 1 15.7623 12.8469 35.6254 1.3207
712 1 1 15.1495 14.5203 7.53224 0.400343
234 1 1 18.5434 14.726 2.58321 1.45714
1082 1 1 18.6094 10.2754 3.5092 1.767
1971 1 1 2.80792 12.7199 1.50237 0.996659
6459 1 1 3.31885 13.8205 3.97672 0.54278
7060 1 1 3.02636 13.5453 1.07191 0.0719085
6600 1 1 6.74075 13.2331 4.16261 3.56238
487 1 1 7.48673 12.483 3.08775 1.49226
365 1 1 7.62511 14.1369 4.62878 1.04934
53 1 1 7.64172 14.2525 2.64587 0.463568
1165 1 1 10.8219 13.1699 37.058 1.71336
7984 1 1 11.2754 14.2043 36.8688 1.40461
286 1 1 12.4037 13.7828 36.825 1.56447
416 1 1 9.6523 12.5179 1.89277 0.752029
6750 1 1 15.5884 13.3032 4.497 0.457382
1187 1 1 14.1697 12.2221 3.58539 3.31506
1904 1 1 13.0423 12.6785 3.46342 1.86892
7444 1 1 15.5922 14.5655 2.57156 2.1688
375 1 1 16.0149 14.605 1.0495 0.849858
1282 1 1 2.21607 16.0544 2.14872 0.602219
1561 1 1 4.46278 15.775 1.0928 1.51689
785 1 1 4.27246 15.6302 2.54136 1.15419
504 1 1 5.39257 17.246 1.58038 4.85827
1527 1 1 5.91483 16.6681 0.147397 0.935118
2046 1 1 8.69911 16.1907 3.92723 0.656014
7489 1 1 6.28773 13.4432 1.71502 1.78634
885 1 1 6.83085 14.3882 3.90037 0.650419
902 1 1 7.62334 16.8942 4.43824 3.61925
1940 1 1 8.09744 15.7213 2.94456 2.13296
2224 1 1 11.475 17.6436 1.41665 0.29547
961 1 1 7.02417 15.1636 0.775062 1.3846
7893 1 1 10.9638 14.2901 3.78386 0.841835
7757 1 1 15.7042 15.6612 0.271299 0.0926163
93 1 1 17.5515 15.7633 4.58006 0.492861
1077 1 1 15.892 12.7392 2.40824 1.58574
1614 1 1 18.732 15.7206 3.18522 1.931
7951 1 1 1.00517 18.5164 1.37143 1.03457
7116 1 1 18.4294 17.1828 1.71007 0.349382
439 1 1 3.23315 13.4895 37.5302 1.31157
1634 1 1 2.76413 16.7772 2.43207 1.33457
7934 1 1 4.92594 16.3867 3.65663 3.4483
763 1 1 6.26512 17.7471 2.01 0.872669
7620 1 1 11.2224 14.0245 1.71919 0.969371
1196 1 1 8.58168 18.1855 1.97789 1.6235
338 1 1 10.6335 17.0678 3.20826 0.69946
1167 1 1 12.0149 14.4602 3.94556 2.39849
7163 1 1 14.0584 15.8011 1.39155 1.78816
820 1 1 13.8354 14.8289 0.523882 0.4103
1308 1 1 13.6645 17.6355 0.511534 2.90041
1479 1 1 13.9948 18.0312 1.42123 1.07201
1638 1 1 1.47325 15.6415 37.0999 0.236878
328 1 1 0.669009 18.6626 0.268785 0.362834
859 1 1 0.866052 1.81134 0.18541 1.3946
611 1 1 3.31144 17.1557 5.56456 0.494353
6866 1 1 7.70073 2.23872 1.67422 1.10265
687 1 1 5.95667 14.5263 1.77218 0.253526
7300 1 1 6.73019 18.5847 1.75052 1.13272
1328 1 1 6.07269 0.649343 1.84537 1.62842
96 1 1 6.06467 18.2289 3.04952 2.52108
6079 1 1 7.73018 0.271811 1.90995 2.30465
173 1 1 7.64249 0.20214 34.1519 1.2704
7950 1 1 10.0526 15.9006 0.805278 1.07085
696 1 1 10.134 17.6211 4.0699 0.629187
1616 1 1 12.2331 18.188 4.42972 1.04927
20 1 1 13.4771 13.2595 0.756044 1.44265
1588 1 1 12.6164 18.5072 1.81189 3.78085
6872 1 1 14.7947 14.8686 1.40109 5.72732
881 1 1 17.6767 17.3396 2.96539 0.566652
1269 1 1 15.7848 17.4135 2.97597 0.982238
7497 1 1 16.6264 17.2292 2.0875 6.24407
7744 1 1 16.5768 18.395 2.27308 1.59445
1607 1 1 18.1426 0.730709 2.5198 3.76822
18 1 1 16.7663 17.662 3.20218 1.07218
2026 1 1 1.24559 1.98953 1.04639 2.3237
547 1 1 4.11706 18.7921 2.73708 0.221437
1327 1 1 5.44664 18.6701 6.12004 0.430182
633 1 1 3.49669 2.63691 4.27245 0.16768
1738 1 1 2.86965 1.87679 3.60211 0.185669
2126 1 1 9.01046 17.2954 4.52785 0.254094
7982 1 1 7.26008 18.5877 3.79239 2.22773
1168 1 1 9.48925 0.2948 3.84885 1.47783
497 1 1 7.84016 17.6687 3.07316 7.03021
1579 1 1 11.1364 17.7807 4.53943 1.75916
7150 1 1 10.2479 18.576 4.32067 3.37787
7821 1 1 10.8476 0.507129 3.69078 4.45399
7669 1 1 13.0137 18.0545 3.60875 1.19547
7980 1 1 14.58 0.199347 6.06613 2.14885
2270 1 1 12.1829 1.19986 5.7825 3.71742
430 1 1 14.3421 0.878644 2.78709 3.03171
1413 1 1 18.1891 0.372575 4.93271 0.920878
867 1 1 14.5226 0.195204 3.7623 2.5016
7028 1 1 14.2749 2.23171 2.9152 0.543832
853 1 1 15.3229 3.55813 1.49337 2.06126
1443 1 1 0.475694 0.565841 4.06146 0.81683
879 1 1 18.4598 18.7106 3.99242 0.514084
2030 1 1 4.4395 1.75565 3.64366 0.176582
109 1 1 1.45918 0.969607 3.81483 3.34381
7251 1 1 3.04639 5.03244 4.1464 2.8626
915 1 1 3.94294 2.21923 1.99967 1.04221
1543 1 1 7.3509 2.57922 3.61633 2.90195
1322 1 1 3.85514 3.70277 3.4374 2.67109
7989 1 1 4.21356 3.73171 4.89256 3.30718
454 1 1 8.14243 1.89451 3.45856 1.76064
1466 1 1 9.89871 0.94046 3.18319 0.577323
824 1 1 11.2025 18.7689 4.83747 1.30957
1213 1 1 15.659 2.56323 2.37915 1.17572
906 1 1 9.60848 16.6106 3.39135 3.05858
409 1 1 13.1559 0.95756 2.59686 0.33507
2075 1 1 13.0138 18.4572 4.99183 3.04749
1473 1 1 14.8067 17.2864 3.42913 0.483817
1044 1 1 12.1309 1.98159 4.16336 0.883322
1223 1 1 15.7817 4.13775 0.895362 4.20784
387 1 1 12.4593 3.26501 3.4102 0.877434
7601 1 1 17.9036 3.80413 6.13386 2.51661
206 1 1 1.6967 1.01232 2.4046 0.494656
148 1 1 3.19472 0.544856 5.14067 0.0671607
874 1 1 0.158377 2.64496 4.39293 1.4666
7280 1 1 1.48544 2.65916 4.5886 1.06096
1374 1 1 0.841694 4.86918 3.9548 0.379362
6648 1 1 3.60954 4.16617 6.76912 0.524397
774 1 1 1.3125 4.34035 5.01858 0.177365
7123 1 1 6.08915 4.22237 2.53163 0.573274
2917 1 1 2.85061 3.89167 3.31897 2.50146
1365 1 1 3.96125 2.60209 3.08108 0.643231
7921 1 1 3.66449 4.44378 5.75512 4.33778
7685 1 1 5.93659 6.5812 4.71025 1.52225
1488 1 1 6.36286 2.51257 3.9142 1.60487
2177 1 1 10.6518 1.77537 2.6844 1.60218
1208 1 1 5.9911 2.72486 4.98657 1.65686
544 1 1 11.2277 2.79879 4.23906 0.306847
623 1 1 11.5366 18.6481 3.73162 0.315794
7010 1 1 13.4258 5.14352 5.39176 1.97845
446 1 1 11.8161 2.72002 1.97473 1.10038
2139 1 1 14.7934 4.2729 2.95157 0.273248
2867 1 1 13.3178 0.863188 3.59606 1.24187
1539 1 1 14.9757 2.89327 3.49205 2.44296
1422 1 1 15.731 3.41444 4.21663 0.244837
7914 1 1 16.6011 3.04018 5.86008 1.46142
828 1 1 13.4839 1.97778 2.12838 1.48379
982 1 1 18.2202 3.45285 2.96508 0.671757
1041 1 1 16.9417 3.6306 1.96716 4.09248
47 1 1 18.0967 6.33076 5.06407 2.67684
1659 1 1 0.0279883 4.71112 4.68216 2.58814
15 1 1 1.90984 7.40233 4.03879 1.46009
548 1 1 0.437134 6.81807 6.59978 2.0768
7924 1 1 5.0671 4.71821 4.10676 0.655753
125 1 1 6.66353 4.91092 1.774 3.93966
1723 1 1 4.54302 4.76181 1.19549 1.50224
98 1 1 8.83733 5.72605 5.21863 2.01981
2318 1 1 6.69405 5.04983 2.86751 0.856769
796 1 1 10.4488 4.77175 4.0333 0.361473
6136 1 1 9.76763 3.5259 3.78434 2.92313
7666 1 1 12.1424 4.58455 5.65749 2.18704
183 1 1 9.12577 4.47542 1.98711 1.02074
1203 1 1 15.7364 3.58424 2.67246 0.916356
2017 1 1 14.6067 10.3089 5.34647 1.33669
7273 1 1 15.7836 5.14426 1.15119 1.87574
7998 1 1 17.0832 3.43974 4.61986 1.02542
75 1 1 0.999712 3.1162 5.49836 1.81364
6396 1 1 0.954427 7.1648 4.50651 0.292744
1002 1 1 3.08252 6.63972 3.4577 0.274883
6848 1 1 1.87609 9.80182 4.46449 2.31675
1883 1 1 5.92555 5.40917 5.48352 0.39873
7879 1 1 3.16045 4.56705 2.48001 2.81442
1717 1 1 4.21159 7.59829 4.08246 0.695087
6767 1 1 4.28453 7.64144 0.342643 1.18228
1864 1 1 2.9632 5.67551 2.78757 0.870849
131 1 1 7.51904 7.32613 5.26377 1.75125
188 1 1 7.19906 4.05052 2.31186 0.437566
1217 1 1 7.13644 7.67989 3.97359 0.112462
7782 1 1 10.1868 6.13067 4.02335 3.09216
564 1 1 9.96024 5.70463 0.983284 0.33001
6538 1 1 11.8255 6.41488 4.86641 2.12472
1927 1 1 11.7625 5.92636 2.96203 0.373493
1051 1 1 14.8089 7.47809 5.35904 2.82836
7611 1 1 15.9821 10.3938 5.59814 0.737311
285 1 1 14.2638 5.21122 3.55961 1.75754
5812 1 1 14.9372 4.46748 1.65606 0.754799
108 1 1 13.8296 4.98722 2.58798 5.13771
602 1 1 15.6549 5.69398 2.21791 1.355
1338 1 1 1.27145 5.89795 2.3824 0.498569
928 1 1 17.3634 5.29885 3.85083 0.0328565
1399 1 1 18.7315 8.91324 0.620976 2.00995
2747 1 1 17.5239 8.38545 6.81762 0.239456
996 1 1 2.732 8.4455 4.88997 1.57725
357 1 1 4.9966 9.06005 2.68429 2.65044
626 1 1 3.22807 9.3218 3.87699 2.69327
983 1 1 7.28231 9.21099 3.53106 0.714193
568 1 1 8.49817 7.26813 1.74967 2.05013
344 1 1 7.71979 9.52735 4.59541 2.86224
2980 1 1 9.99746 7.72113 5.66599 2.45021
7322 1 1 9.717 7.1149 4.06033 0.87511
1784 1 1 10.6775 6.96342 4.55413 0.933958
648 1 1 11.4353 8.90898 5.98301 0.243268
738 1 1 11.3969 8.52603 1.76352 0.472013
1802 1 1 13.6214 8.86481 2.69117 1.80533
1513 1 1 15.4478 9.39292 6.54665 0.875467
596 1 1 14.5844 9.96111 2.03315 0.502056
235 1 1 16.1159 7.02628 2.14655 0.741472
240 1 1 15.8912 6.35879 4.07262 0.525623
6875 1 1 0.340909 5.62692 0.587025 6.48217
2798 1 1 0.0607061 7.99957 4.16406 0.267653
134 1 1 4.22286 10.9835 3.49785 1.13843
440 1 1 4.58753 9.78164 4.85122 3.554
1417 1 1 5.12047 9.11291 7.34366 1.321
1001 1 1 8.08351 10.1268 2.37401 0.673434
604 1 1 8.99816 8.74828 3.14992 1.44094
1211 1 1 10.142 8.13132 4.19299 4.22109
95 1 1 7.72851 10.2503 3.73352 2.74834
345 1 1 7.81132 8.42887 3.91822 2.00725
1460 1 1 11.5988 7.20964 2.83467 0.623922
7867 1 1 12.411 8.2841 6.07471 0.231394
241 1 1 12.5756 9.37877 5.15432 3.28099
1250 1 1 14.5725 8.85548 3.53122 2.4556
2587 1 1 15.2587 9.36128 5.40633 1.04266
790 1 1 14.9611 8.4312 2.18307 0.574726
7470 1 1 14.7307 9.84611 4.22576 0.679598
6561 1 1 18.4349 7.31633 1.9714 0.879757
7432 1 1 16.4625 9.84403 2.36739 2.38745
1113 1 1 15.0115 7.27349 6.4473 2.45521
863 1 1 18.5376 11.3079 5.85938 1.40537
7721 1 1 6.8167 7.90702 3.03656 0.230067
1093 1 1 0.424427 12.3527 3.93898 1.95464
7474 1 1 1.63279 10.9475 6.15103 0.867113
399 1 1 3.60146 12.048 3.61212 3.03933
2882 1 1 5.33522 9.72967 4.10542 0.216292
970 1 1 5.0425 10.683 4.73808 2.70646
7862 1 1 2.66965 13.7789 7.21989 1.50064
2265 1 1 8.98577 11.4346 4.81322 1.21447
1727 1 1 5.47 12.7205 4.366 0.652555
478 1 1 5.02584 10.9587 2.8813 1.85882
825 1 1 10.6789 8.63891 2.37825 0.938741
1296 1 1 9.45821 8.99822 1.83238 3.43128
7573 1 1 9.80823 7.79717 0.0246698 1.43906
378 1 1 9.45335 12.4435 37.5098 1.83849
1332 1 1 10.6325 9.31148 4.36039 1.07478
1438 1 1 15.5487 10.6351 4.02673 1.22716
7979 1 1 13.9047 11.823 5.59083 0.895992
1189 1 1 15.1591 11.3412 2.89041 0.150907
1072 1 1 14.4878 11.1248 3.82662 6.45761
1143 1 1 15.9879 11.6603 2.22162 2.6968
1728 1 1 18.6546 7.12774 3.52959 1.80581
622 1 1 16.8023 8.62085 4.00689 4.0039
1280 1 1 18.1966 13.4507 4.30985 2.13228
1895 1 1 3.86378 16.4186 2.92156 0.0263293
7863 1 1 18.6246 14.3145 5.24144 4.7138
800 1 1 6.06912 15.5139 3.79888 2.91675
7011 1 1 18.1405 14.8561 3.59277 2.98967
1178 1 1 5.84238 11.8125 4.71316 0.802211
1163 1 1 1.16848 15.6996 4.50194 2.99705
1448 1 1 4.61824 13.4957 2.83987 0.885257
699 1 1 8.43639 12.2066 3.09849 0.0177744
163 1 1 8.71662 12.3819 1.34828 2.5677
1226 1 1 7.97909 11.269 2.35119 2.25831
823 1 1 8.59945 10.5071 1.52841 1.23669
1504 1 1 9.88534 12.1349 6.63537 4.50156
7138 1 1 14.811 12.0245 1.09856 0.471216
1799 1 1 12.9915 13.1411 4.41399 0.368346
991 1 1 17.4208 12.147 1.83843 2.84815
303 1 1 17.0719 13.1586 2.41082 0.505809
302 1 1 15.6862 14.6595 6.58853 0.886795
6563 1 1 17.6714 11.3807 4.44605 3.98114
1079 1 1 18.1372 12.3473 2.68347 1.48042
918 1 1 0.202899 14.0944 1.64948 1.93674
7754 1 1 17.4856 14.5931 4.6342 1.30057
642 1 1 1.96726 15.7634 3.15053 2.53627
7051 1 1 3.77034 15.5994 3.52252 1.25004
7515 1 1 18.5008 15.1401 6.88534 1.10669
6531 1 1 4.62144 17.3086 6.5798 2.2809
6536 1 1 2.95679 14.2285 8.00506 0.692588
7210 1 1 3.89393 11.4298 4.55576 0.228356
7139 1 1 8.4036 13.278 3.32749 2.6525
221 1 1 9.01747 14.5476 4.76102 0.200475
1848 1 1 11.504 11.0228 3.52763 1.42141
284 1 1 8.85443 17.5683 2.8867 0.0672975
64 1 1 10.6371 11.15 1.21918 6.17491
1100 1 1 11.6888 11.3645 4.59973 1.72704
7705 1 1 10.7015 13.0507 2.21503 0.469992
854 1 1 16.8505 13.1002 4.31302 1.06007