ITEM: TIMESTEP
3500
ITEM: NUMBER OF ATOMS
8000
ITEM: BOX BOUNDS pp pp pp
0.0000000000000000e+00 1.8820720577620570e+01
0.0000000000000000e+00 1.8820720577620570e+01
0.0000000000000000e+00 3.7641441155241139e+01
ITEM: ATOMS id mass type x y z v_temp
7951 1 1 0.923401 0.851282 2.01442 0.406907
328 1 1 1.07445 1.71138 0.93871 0.948408
1739 1 1 2.19501 0.461922 35.679 3.21878
1573 1 1 4.21938 1.07808 0.490533 2.27194
1198 1 1 3.55327 1.89336 1.23776 0.191857
7166 1 1 6.56035 1.05209 37.4746 0.861961
7300 1 1 4.88248 18.448 1.16411 0.331788
1328 1 1 7.00409 1.1454 0.996465 2.95702
1446 1 1 8.68009 0.0444099 0.454879 0.820108
1140 1 1 9.81383 0.221603 0.427223 1.94708
56 1 1 6.65158 3.18634 0.296993 0.0878616
6855 1 1 9.74055 18.6892 36.3423 2.35308
7149 1 1 11.4932 18.3326 1.03593 0.0804497
887 1 1 10.3689 17.8549 35.9451 1.0618
7745 1 1 11.6542 0.408274 35.3022 2.97356
801 1 1 12.5926 0.559374 36.2251 4.27869
1479 1 1 16.2397 0.632359 0.198783 1.21121
7301 1 1 14.5556 18.6429 0.130481 1.45341
1511 1 1 17.1796 0.404711 1.33883 4.30124
6839 1 1 16.5064 0.492157 36.545 5.42673
1672 1 1 16.8824 1.14886 2.51223 1.95713
7088 1 1 18.6219 18.4062 0.104412 0.40396
1380 1 1 18.7569 0.77401 37.3477 1.01786
7930 1 1 3.18284 0.437254 36.4717 5.68362
508 1 1 0.561437 3.39382 0.196787 1.86735
2026 1 1 3.56999 0.886298 2.10611 1.42876
1279 1 1 4.47297 3.37821 0.59035 0.882057
6494 1 1 5.18306 1.99821 37.1886 0.157289
7604 1 1 5.72142 2.5566 0.960088 0.877362
1266 1 1 6.41839 2.36005 1.67311 2.96502
324 1 1 5.52484 3.93719 1.0069 2.20803
7751 1 1 6.37303 3.58833 1.38582 0.109502
7564 1 1 8.47129 4.46183 0.44498 0.193142
7653 1 1 7.69222 2.99861 36.5559 2.34361
6866 1 1 7.21763 2.85354 1.22071 0.841824
775 1 1 11.6346 0.296455 37.3137 0.197458
7283 1 1 9.23434 3.38625 36.6526 2.51972
3337 1 1 12.8699 1.63733 0.907725 3.09486
446 1 1 11.4225 3.65883 0.381554 1.38641
350 1 1 13.8506 0.85905 0.201799 1.96122
6850 1 1 11.9655 2.89043 36.9691 0.0359869
1183 1 1 16.3436 2.60993 1.02618 1.13289
1020 1 1 16.3516 4.02573 0.778259 0.798392
6845 1 1 17.8076 1.90725 1.18597 0.500924
7202 1 1 18.2701 2.96129 1.20731 2.33306
1045 1 1 1.41629 4.45927 1.75115 2.06351
1713 1 1 1.60667 1.40862 37.5646 1.32348
6006 1 1 3.30809 3.09315 1.89748 0.603815
7697 1 1 2.44406 1.92136 1.15175 0.00729718
406 1 1 3.62578 4.10361 0.615678 2.39077
7612 1 1 6.64511 6.13985 1.5419 3.26911
1333 1 1 9.28503 3.81378 37.5886 1.95111
7625 1 1 8.20555 3.52534 1.24433 0.336677
437 1 1 11.0628 1.70736 37.3643 3.91117
7032 1 1 9.82223 3.1421 1.47312 3.37541
7392 1 1 14.9058 4.10632 0.96958 0.996529
5355 1 1 0.026212 4.51372 2.78471 0.659774
853 1 1 15.8375 4.98303 0.786043 0.144791
7595 1 1 17.8089 4.88903 2.045 0.524332
1037 1 1 0.778408 4.65373 0.606373 5.23406
6423 1 1 17.6744 4.01758 1.4115 2.02767
6875 1 1 17.725 5.00204 36.1651 0.432593
6987 1 1 2.78663 5.233 1.70367 0.118249
366 1 1 2.50229 4.34031 36.2088 0.523391
7718 1 1 2.85382 3.96354 1.43663 1.19064
6083 1 1 5.03401 4.45734 2.14292 0.489656
1310 1 1 2.23182 5.42824 3.07225 0.062041
1723 1 1 5.4095 4.72999 36.2806 2.27797
135 1 1 5.26546 7.46972 36.2451 2.96289
5799 1 1 8.25618 5.28945 2.12536 1.67574
217 1 1 6.17225 6.63909 3.21501 1.71071
2244 1 1 11.119 3.00002 1.24017 2.27363
6581 1 1 7.80428 2.54306 2.3645 1.05372
7450 1 1 12.6186 5.31336 0.0782755 2.92029
7155 1 1 13.2971 2.61632 1.49434 1.15403
6551 1 1 10.3109 1.2769 0.569623 0.880629
7544 1 1 13.7523 4.80987 0.260955 0.480701
1377 1 1 14.4632 4.54678 1.91169 3.04481
223 1 1 16.145 6.21426 1.6113 1.63227
7273 1 1 14.9952 5.47935 0.353573 1.63133
877 1 1 18.4169 4.14652 35.2652 0.809348
645 1 1 16.9968 6.62547 1.27695 2.16897
1427 1 1 1.65948 4.46159 36.9018 0.799411
1562 1 1 3.32397 6.29717 0.933007 3.89262
573 1 1 18.48 6.84458 37.6172 0.614099
7956 1 1 4.97423 4.16751 0.018207 0.990948
6152 1 1 2.60843 3.84627 0.415401 0.900299
1224 1 1 9.1486 7.42812 0.560376 4.14649
1381 1 1 9.37251 4.652 2.49777 3.14346
354 1 1 9.44891 4.76539 1.40511 3.47369
6996 1 1 9.74067 5.6861 2.89558 0.503886
7408 1 1 10.508 5.12911 37.4464 1.10269
7466 1 1 11.8828 6.05749 2.61826 1.3662
973 1 1 12.3354 5.76251 1.43767 3.2677
6949 1 1 11.0341 6.34355 1.26796 2.21789
1664 1 1 12.2756 7.36899 0.247302 1.3596
6997 1 1 12.1281 6.6632 37.162 0.838513
6470 1 1 10.9504 4.78142 1.06311 1.1216
675 1 1 12.84 8.01081 2.19307 1.55056
6044 1 1 14.0767 5.42569 2.30052 0.382381
140 1 1 14.6486 6.81583 3.16025 0.462288
276 1 1 13.2922 6.70826 0.38155 2.82918
1537 1 1 15.4795 7.05296 1.90967 0.782581
371 1 1 15.8093 6.2476 36.5935 1.81577
7659 1 1 17.4772 6.05786 3.64054 2.52119
3092 1 1 15.8111 6.49599 37.6037 3.62342
1757 1 1 17.2767 7.59668 2.51477 3.51024
7397 1 1 0.134999 7.32742 1.23881 2.55972
1360 1 1 0.189705 8.7262 2.15179 0.978444
7942 1 1 2.18516 7.62252 37.0464 1.07902
86 1 1 3.63668 6.94401 0.260222 1.27882
6578 1 1 4.98731 9.14681 2.86817 2.09299
6767 1 1 3.01472 9.02601 0.813333 1.97998
1415 1 1 5.09856 9.23217 37.6338 5.58222
6874 1 1 8.88481 8.54999 1.54708 1.29406
6933 1 1 9.19178 9.4288 0.555517 0.756193
7573 1 1 10.2981 7.38915 0.427056 0.157265
5690 1 1 12.6679 9.2739 1.05977 1.3438
610 1 1 12.0623 8.05683 1.34878 4.11115
5857 1 1 17.9549 8.70666 1.50213 0.297343
1399 1 1 18.7148 10.208 37.3677 0.28323
5649 1 1 1.97019 9.04791 3.20549 0.629368
7026 1 1 2.82831 10.4016 2.76967 2.43614
158 1 1 4.31855 9.50206 3.55806 1.46877
930 1 1 5.09481 11.0476 36.9363 1.72321
7065 1 1 6.05672 9.64252 1.56481 0.862248
7731 1 1 5.00761 10.0306 0.84966 1.77177
429 1 1 8.35106 8.42329 0.454757 0.768925
7002 1 1 7.7362 9.05127 1.17999 2.73023
154 1 1 7.93526 10.583 1.74505 0.47954
1296 1 1 11.1584 8.63756 0.0912048 0.13998
7943 1 1 12.7192 9.43309 37.3661 3.37891
232 1 1 14.9492 9.48518 36.6684 0.156873
1193 1 1 13.8664 8.67169 1.16772 0.651441
7021 1 1 14.8332 8.52251 0.683092 2.63004
1120 1 1 14.002 9.807 1.4279 2.45446
7548 1 1 15.9305 8.96596 0.549163 0.265598
7800 1 1 16.7323 9.76941 0.193666 0.93809
3472 1 1 16.7789 9.29419 1.28983 1.09491
219 1 1 16.4639 9.47753 36.5413 4.41295
7967 1 1 1.64261 9.75783 2.17424 3.18478
1349 1 1 1.90114 10.8453 2.64041 0.580632
7729 1 1 0.348603 12.376 2.12792 0.275139
7047 1 1 1.62718 12.3808 0.938356 1.44803
48 1 1 5.03243 9.94068 4.6291 1.83158
228 1 1 3.28125 10.251 0.45134 0.485433
1547 1 1 6.37415 9.89753 4.57355 0.744463
1790 1 1 7.88986 8.5107 2.22936 2.71028
238 1 1 8.35579 11.1762 0.782748 3.37062
678 1 1 7.80644 11.5684 36.9481 1.07709
1385 1 1 10.0321 11.8044 0.658052 1.2166
64 1 1 7.02892 12.5309 0.736192 0.343052
229 1 1 10.5628 10.9874 36.6383 3.14498
969 1 1 15.6408 11.028 3.12852 1.97917
1997 1 1 13.4807 11.9965 0.611156 2.90185
7512 1 1 14.5026 11.8507 0.412794 0.414509
627 1 1 16.0723 10.4805 0.570844 6.57381
736 1 1 18.0418 11.0083 0.159382 1.64474
7805 1 1 16.6149 13.6184 36.0367 3.40998
549 1 1 2.71903 15.0951 2.73391 0.779804
1971 1 1 2.62263 12.773 0.693993 2.30828
7621 1 1 3.01042 12.7584 2.9223 0.620096
452 1 1 3.71679 10.8903 2.2861 3.29149
1046 1 1 6.42307 14.0315 0.499572 1.1609
23 1 1 4.52991 13.0355 36.7985 2.37167
6253 1 1 6.91543 10.5837 0.844181 4.1981
6723 1 1 11.2837 13.2459 0.422035 0.770041
423 1 1 14.2753 12.3994 1.29385 1.00522
296 1 1 16.6989 13.4081 0.394451 0.719534
7282 1 1 14.3562 13.8623 37.4164 0.358356
962 1 1 0.577903 10.4601 0.527861 1.95695
6183 1 1 0.704114 13.1932 37.3323 0.0606155
6411 1 1 0.356426 12.1353 0.0884716 1.46148
7060 1 1 3.2953 14.1294 37.6437 3.24515
6898 1 1 4.61815 12.4301 0.130264 0.892778
6379 1 1 5.06964 13.841 0.958725 2.41403
7035 1 1 7.27531 15.0856 1.33153 1.03315
7457 1 1 5.35206 14.3003 37.3521 3.5556
378 1 1 9.99583 14.86 1.39116 4.829
5866 1 1 8.37901 14.1495 37.3214 1.84724
7620 1 1 13.6233 14.4556 0.371164 0.388689
708 1 1 12.5398 11.6634 0.886142 2.4942
7955 1 1 12.4109 13.2611 2.2252 0.588675
1567 1 1 16.469 12.2923 36.9854 0.116489
7338 1 1 18.7005 13.7262 1.68597 1.50406
336 1 1 17.1376 14.3276 0.844128 1.71399
7261 1 1 18.7757 15.8489 1.6839 0.390864
918 1 1 0.159358 14.5771 1.37737 0.667948
7845 1 1 3.02221 16.1608 35.0805 3.48696
7405 1 1 5.33315 16.0291 0.920265 0.749978
1995 1 1 7.18559 15.8996 2.48717 0.785121
1561 1 1 4.87699 15.3704 37.0691 1.30206
37 1 1 7.94078 14.0931 1.74446 1.54866
6399 1 1 8.69934 14.7525 0.960951 4.39762
961 1 1 8.57904 16.6455 1.16509 1.27303
7950 1 1 11.6024 15.659 3.31114 3.73784
1144 1 1 10.4713 14.6848 35.2877 1.02279
511 1 1 11.6141 14.0684 0.0753734 1.79775
6032 1 1 12.7482 16.4264 36.5023 1.75982
7163 1 1 12.8871 16.6655 0.203349 0.569488
820 1 1 12.9679 15.4871 37.3608 1.51714
629 1 1 16.2973 14.9084 0.9035 1.09478
1529 1 1 15.1618 15.2842 2.70144 1.93965
375 1 1 17.2771 13.4815 1.16915 0.48632
7757 1 1 17.2025 15.3075 37.5385 0.712428
7672 1 1 0.294407 16.7245 37.2465 2.41033
1170 1 1 17.7393 15.1721 0.810451 1.22324
757 1 1 0.551254 16.3387 36.1375 0.242844
2476 1 1 2.05685 16.0029 0.756634 3.50153
1984 1 1 0.0419106 15.3966 0.490874 0.421568
1136 1 1 2.59895 17.3623 0.411217 0.856703
7248 1 1 3.12643 16.1459 0.718389 0.921395
7530 1 1 6.46892 16.717 1.3866 6.43991
569 1 1 6.11954 15.5961 1.76992 0.844726
7899 1 1 8.55982 16.4196 36.6891 2.5784
7736 1 1 8.87905 16.0809 0.00296241 1.94775
6673 1 1 9.8837 16.3405 0.0605527 0.398701
1103 1 1 11.9988 15.3486 37.1642 0.17499
7680 1 1 13.5991 16.5901 37.0895 0.648017
2106 1 1 11.0763 15.2875 1.48109 0.447203
472 1 1 13.9698 17.3008 1.71416 0.388146
2109 1 1 14.9915 17.5342 1.40501 0.156304
579 1 1 16.6794 16.8524 37.4339 1.23095
1042 1 1 18.1402 16.3935 0.574438 1.78438
2662 1 1 0.989076 17.6771 37.1113 1.90741
668 1 1 0.667078 17.8442 0.732261 0.481709
1469 1 1 3.78066 18.6679 1.12214 2.20338
7773 1 1 4.53992 1.69629 1.73122 1.57975
175 1 1 5.47758 1.12055 1.61277 0.495559
895 1 1 9.5791 17.4967 0.364954 0.814576
1993 1 1 10.1724 17.2 37.1844 0.942502
7753 1 1 9.07193 17.5952 36.9724 0.0629077
7568 1 1 13.1534 17.7942 0.103442 1.17672
1308 1 1 13.9853 17.7803 37.2008 0.66955
788 1 1 16.1054 16.5682 36.2693 5.3345
7529 1 1 16.6696 18.3093 1.07904 1.59645
1315 1 1 17.5847 17.7831 36.7747 0.779147
7434 1 1 17.9063 17.6592 2.15078 0.238483
910 1 1 1.75382 18.2491 2.8881 1.36321
206 1 1 1.88134 1.16777 3.0505 0.368475
608 1 1 3.15622 1.71703 3.41849 1.17167
692 1 1 3.79964 1.67129 4.24729 1.79202
7818 1 1 7.86929 0.805751 1.74524 1.69133
6079 1 1 5.95268 18.5435 0.813141 1.59135
55 1 1 9.96766 18.487 1.707 0.608358
2103 1 1 8.7172 1.53853 1.0423 0.645678
343 1 1 10.2772 17.6425 2.95763 0.0648738
515 1 1 12.8629 0.0731309 37.1322 0.163048
94 1 1 11.4135 0.122951 2.08364 0.735614
6659 1 1 11.3158 1.07765 1.49354 1.57159
2348 1 1 13.5034 0.880468 1.25732 3.26886
409 1 1 14.7147 1.60258 1.42296 4.30265
7340 1 1 12.3628 18.4599 1.74853 0.0703694
281 1 1 12.8066 18.4601 0.807954 1.61007
822 1 1 14.7339 1.32997 2.5431 0.642581
430 1 1 15.036 3.16062 2.0402 1.7074
1928 1 1 16.1976 0.85811 1.41155 2.51072
807 1 1 17.3995 18.3794 4.73341 2.98221
351 1 1 17.6852 17.7004 0.978986 0.71241
1607 1 1 17.3391 0.360875 2.9191 0.550996
149 1 1 0.699827 2.23625 2.06646 2.9217
965 1 1 18.4897 2.01583 2.22954 1.77831
2044 1 1 4.15788 4.0635 1.52181 0.698578
1654 1 1 1.84716 1.36282 1.98493 2.2902
104 1 1 3.90238 1.97011 2.44848 0.727236
915 1 1 5.5466 3.46431 2.29907 2.05659
6040 1 1 7.66739 1.77077 1.53037 0.259601
454 1 1 9.99578 2.97087 0.37291 4.41781
726 1 1 10.989 2.52114 2.19402 1.06068
1270 1 1 12.2302 2.55956 2.269 0.0373479
6241 1 1 12.633 3.23197 0.858117 2.07492
828 1 1 13.7732 1.75029 0.45637 0.326311
7440 1 1 16.2326 3.07914 37.3324 0.346276
7028 1 1 12.463 1.28941 4.13991 3.58092
552 1 1 16.8338 4.39767 1.83765 2.26528
1591 1 1 17.2065 2.2652 2.05679 1.3662
914 1 1 18.327 3.27108 4.23803 0.0773921
7633 1 1 16.6332 3.10492 1.8681 1.60856
383 1 1 0.357449 3.62661 3.35901 0.773556
643 1 1 1.88084 2.70864 2.14046 2.43322
115 1 1 1.64883 4.3123 2.93596 3.01903
7660 1 1 1.77631 3.41728 1.45353 2.29547
489 1 1 3.57258 4.80255 2.4629 0.862169
1322 1 1 4.74513 2.47294 1.26142 1.39866
7879 1 1 4.89465 6.35388 2.09673 1.48991
1237 1 1 7.01557 4.92473 1.4435 4.19681
1850 1 1 5.75048 5.3023 2.74027 1.23264
188 1 1 6.91338 5.1582 3.59516 0.649126
7861 1 1 7.5853 4.04276 3.41956 1.39457
6922 1 1 8.83579 2.84608 3.14693 1.56157
580 1 1 6.83233 4.7033 2.6908 1.77909
183 1 1 10.3511 2.74194 3.84922 3.3459
593 1 1 8.91319 2.99859 2.07772 0.0523791
7468 1 1 12.3224 3.6622 2.06175 0.250404
2139 1 1 13.1725 4.73271 2.17006 0.813464
1213 1 1 15.9973 3.55504 2.71615 1.08462
1203 1 1 15.7691 5.24381 1.86273 2.04846
982 1 1 18.7547 4.3533 1.39668 0.34338
1409 1 1 0.756946 6.43952 1.70458 1.57866
7938 1 1 3.13494 3.27132 37.3657 1.1721
1338 1 1 3.28368 7.05671 5.08423 0.848237
936 1 1 2.79386 2.21568 2.39575 3.43043
6605 1 1 4.73893 5.34305 0.689632 2.77081
2318 1 1 5.72275 5.04011 4.1566 1.56673
6216 1 1 5.5345 6.99171 37.484 0.617067
125 1 1 8.12386 3.52664 2.56764 2.08569
61 1 1 10.6972 2.77881 4.77673 3.51091
6566 1 1 7.87809 5.02471 3.15523 1.40835
164 1 1 10.9098 3.47994 2.83746 2.37282
7348 1 1 12.9024 4.82512 5.20229 5.16328
285 1 1 12.0996 4.92477 2.02615 2.58264
5812 1 1 12.908 7.62953 1.24861 2.5383
651 1 1 16.3287 5.70582 2.71714 4.93679
7358 1 1 18.2746 6.01337 1.64398 0.90416
602 1 1 17.0085 4.85954 0.505676 2.28789
1715 1 1 0.785786 6.53794 2.79509 1.02081
137 1 1 18.0331 5.5388 37.3022 2.62602
314 1 1 0.313816 5.23473 1.83039 2.45486
72 1 1 1.98363 5.78842 1.99285 0.34358
802 1 1 0.799561 7.09934 3.83187 0.729579
6561 1 1 0.65443 6.00509 0.304482 2.9719
305 1 1 0.598286 7.78624 5.54493 3.10059
7944 1 1 2.38834 7.24498 1.87154 0.124313
7803 1 1 1.30774 5.47862 1.10295 1.91316
1864 1 1 2.50813 6.11304 3.88177 1.78988
6971 1 1 6.42858 7.50419 3.71195 1.96425
190 1 1 2.25794 6.71376 0.107614 2.05788
7387 1 1 8.65086 5.64589 3.60912 3.4897
1781 1 1 8.94666 3.84187 3.46401 1.60818
7094 1 1 10.4505 4.43611 3.07675 1.4558
564 1 1 9.74491 4.62242 0.435609 0.688246
1450 1 1 11.9377 5.23751 3.95321 3.49089
7719 1 1 11.6363 4.66853 3.06806 1.9339
550 1 1 14.0527 8.19138 2.0651 2.13791
108 1 1 11.0009 4.23498 2.13521 0.925023
271 1 1 14.9404 6.09567 2.43639 5.24234
486 1 1 13.7129 6.90454 3.71085 3.32578
956 1 1 15.536 6.10132 3.5173 3.3503
235 1 1 16.1789 5.18189 3.8774 0.0178662
6719 1 1 18.3692 5.4851 2.79178 1.24439
6196 1 1 1.37311 7.93048 3.62552 2.26713
1596 1 1 2.81863 8.26784 1.68705 0.808249
7308 1 1 3.83426 6.88529 1.8034 6.01896
7854 1 1 4.71433 8.65384 4.80677 4.56685
1917 1 1 4.56913 10.1312 2.5206 0.166011
7326 1 1 4.20592 8.18274 2.07834 0.745313
1681 1 1 5.32892 8.76558 1.52262 0.309754
7721 1 1 5.98242 9 2.68789 1.02511
7482 1 1 7.47739 7.38843 0.0258621 1.25701
568 1 1 9.16089 9.00688 3.41213 1.82898
1273 1 1 7.41744 8.11032 1.29531 0.754008
7643 1 1 10.1316 10.0783 2.4916 2.50518
277 1 1 9.13889 7.11673 2.02864 0.327047
825 1 1 11.9759 8.66871 2.31881 2.17756
543 1 1 13.1876 8.94343 1.94061 0.878401
7945 1 1 14.0478 8.87368 37.2667 0.726339
790 1 1 14.6476 7.70276 4.09183 3.78327
6159 1 1 18.4764 5.40633 3.88715 4.05107
913 1 1 17.9015 7.14272 3.56813 0.433949
669 1 1 16.1814 8.20384 1.8446 0.879697
79 1 1 15.0262 7.73147 1.29423 0.659222
926 1 1 18.5623 7.06008 2.60877 2.82846
205 1 1 0.665158 7.64168 2.77826 1.75979
7717 1 1 1.13612 10.2246 2.96819 0.714158
773 1 1 2.90066 10.6545 4.90295 0.470699
2504 1 1 1.85387 8.97358 5.27233 0.626629
8000 1 1 5.64145 8.75837 4.18085 1.59028
1863 1 1 6.61422 9.29733 0.828899 3.1502
357 1 1 4.12942 9.42812 0.884386 0.785901
529 1 1 5.45816 9.6877 3.49625 2.98371
615 1 1 6.54832 7.68392 2.04529 3.86652
7335 1 1 9.17869 9.866 1.81803 1.22303
1001 1 1 10.5755 9.14891 1.27597 0.330574
2814 1 1 9.42396 9.04905 36.0478 1.36768
7004 1 1 12.7971 10.7602 1.99711 0.423966
738 1 1 11.508 10.3391 1.55233 0.508829
1906 1 1 11.7394 11.3863 1.8228 0.258499
374 1 1 12.5927 10.1353 2.871 5.07319
7913 1 1 14.7422 7.21207 0.442717 0.647897
596 1 1 16.728 11.6697 3.06569 5.42878
7432 1 1 16.977 9.54246 3.473 2.08939
7488 1 1 15.299 9.89961 1.14771 1.29102
6675 1 1 18.0029 8.17924 3.07443 0.784487
7966 1 1 0.590954 8.78344 3.23985 0.276488
634 1 1 0.192067 10.8436 2.17175 2.80098
7056 1 1 2.74475 9.5517 4.29888 0.485687
6232 1 1 3.84473 10.3442 3.48765 0.0619319
146 1 1 4.6831 12.0499 4.78573 1.91226
6584 1 1 6.07233 11.0174 1.47649 1.53639
1226 1 1 7.73 11.7966 1.82611 2.05332
823 1 1 9.45578 10.8064 0.859744 2.11188
955 1 1 12.0571 7.58867 2.49678 3.22603
699 1 1 7.09575 12.3351 3.59743 0.252619
342 1 1 9.11263 12.995 1.04573 4.65645
574 1 1 9.50593 11.1356 37.4024 0.759472
386 1 1 12.137 12.7849 1.05762 2.16282
818 1 1 14.8097 11.0765 2.34192 0.735293
2453 1 1 13.8709 10.3743 2.61924 1.41549
2353 1 1 16.4934 13.8168 3.14054 3.04067
600 1 1 16.1446 10.74 1.48297 1.13622
7888 1 1 15.307 10.423 37.587 1.81733
1079 1 1 18.0098 9.29743 2.84652 0.946811
750 1 1 0.631014 9.54242 1.46571 0.318116
7128 1 1 17.4415 11.2776 1.01377 0.189105
7851 1 1 18.0793 11.5866 3.61232 1.40759
1528 1 1 2.42234 12.8315 1.7903 0.724457
1006 1 1 4.54966 11.3423 2.6791 0.0992004
704 1 1 5.20794 12.4671 2.23533 1.28655
7755 1 1 3.8657 11.6912 1.54395 1.41716
563 1 1 5.46374 10.2819 1.9374 2.68786
163 1 1 6.4184 12.5487 1.6623 2.26541
7704 1 1 9.00646 13.9235 1.45479 0.429549
416 1 1 10.9057 12.3162 0.871827 0.365401
7266 1 1 10.0127 12.6879 1.27072 0.489802
976 1 1 12.9771 11.3319 3.14495 1.46293
1189 1 1 13.6918 11.8718 1.94204 1.74316
7138 1 1 15.716 13.4278 1.39977 0.388171
7999 1 1 15.3548 13.5927 2.7721 1.57666
1143 1 1 16.2495 12.6672 3.51201 4.12746
303 1 1 17.1203 13.4957 4.56317 0.634659
991 1 1 17.5537 12.4879 1.10502 1.10949
7772 1 1 0.726062 13.5577 2.3058 1.21193
559 1 1 2.02823 12.7633 3.80824 1.76323
4804 1 1 3.74579 13.8082 2.88196 1.79994
6464 1 1 2.21984 13.8582 1.2976 0.859546
1448 1 1 5.03314 13.9335 2.38133 0.807851
7217 1 1 4.63551 15.5397 3.42059 1.51552
7489 1 1 5.89855 14.1418 1.3937 1.46385
1210 1 1 7.68464 12.9125 1.8947 0.50017
7961 1 1 6.23 12.6439 2.59429 2.51319
769 1 1 7.968 13.4849 0.722267 2.96312
1432 1 1 11.3931 14.0519 4.38035 0.368573
2347 1 1 8.03542 12.3455 1.05537 1.82598
7705 1 1 11.8147 13.7329 1.23339 0.660606
6872 1 1 12.1513 14.7594 0.787465 0.963549
209 1 1 14.6704 14.6159 2.20273 1.47178
1406 1 1 16.6896 13.5062 1.97984 2.58661
1077 1 1 15.8422 14.696 1.90672 2.49914
255 1 1 17.4114 14.2644 2.65708 1.22044
1910 1 1 0.963003 14.3951 0.472002 2.33843
1999 1 1 0.0691183 17.1769 1.74759 3.22909
7404 1 1 4.43133 14.5175 1.33573 0.349807
1729 1 1 7.5648 16.5843 0.603642 1.13869
687 1 1 6.53604 14.6392 2.12571 1.10292
239 1 1 9.05111 15.1171 1.97472 0.0130405
89 1 1 10.1921 16.5534 2.84025 0.62156
640 1 1 10.1184 14.3056 3.25743 3.1156
2373 1 1 12.7967 15.8956 1.07388 0.914384
1439 1 1 13.0795 15.747 3.94482 1.58353
7052 1 1 14.6389 15.711 37.5842 1.4082
7444 1 1 13.727 14.2229 3.1872 1.01038
7545 1 1 13.5146 14.5904 37.0005 0.275755
234 1 1 1.586 13.1263 2.55226 0.283296
6824 1 1 17.7666 16.9348 2.92048 0.0778763
1590 1 1 18.2991 14.5287 37.3929 7.53775
954 1 1 0.921436 16.4357 3.46432 2.65628
1282 1 1 2.52289 16.7975 3.4909 3.66133
785 1 1 3.6341 15.4753 1.6373 8.60458
1634 1 1 1.62583 16.943 2.91101 0.680353
1245 1 1 2.94018 16.9201 1.96338 1.53202
7957 1 1 4.51069 16.6853 1.41099 0.203994
7303 1 1 4.64268 17.5359 2.54337 1.98273
1337 1 1 6.25001 16.3231 2.46442 1.06635
381 1 1 9.95297 17.1015 4.10716 0.943731
1453 1 1 10.4826 16.8792 1.73249 0.13253
2224 1 1 11.0811 17.1886 0.815159 2.15197
841 1 1 10.3634 14.9866 0.332808 1.36339
6582 1 1 10.6121 16.2242 0.883253 1.23087
809 1 1 11.7675 16.3337 0.800832 1.95395
948 1 1 11.4028 15.4214 0.344774 0.328868
1186 1 1 13.798 15.742 0.569118 0.972719
1986 1 1 14.8032 14.8633 0.661148 1.92727
7497 1 1 14.4921 13.4679 1.499 2.6916
500 1 1 14.8108 16.4125 1.16506 0.511706
7977 1 1 18.2937 17.3755 37.5893 1.82316
7116 1 1 0.944725 16.5328 1.54009 2.80536
7947 1 1 18.3398 18.7941 1.78913 0.993286
1509 1 1 2.99971 0.054519 1.80849 2.29989
332 1 1 3.61609 18.4147 2.7948 0.537519
215 1 1 2.32772 0.267681 4.90785 7.08993
7613 1 1 6.43642 1.29783 2.03091 0.63564
504 1 1 5.31342 17.8199 1.7624 0.812705
96 1 1 3.57635 0.834211 3.51964 3.72443
763 1 1 9.25457 16.6875 2.18574 3.47271
1675 1 1 5.36999 18.0026 3.104 4.2898
1416 1 1 8.02553 17.5067 0.970508 1.73282
1196 1 1 9.79859 16.1299 1.50834 0.754287
898 1 1 9.22749 17.7088 3.31505 0.5587
7452 1 1 11.0926 17.6242 1.80569 0.319167
1339 1 1 11.7542 0.655615 3.09973 2.22273
980 1 1 11.2196 16.6321 37.5057 2.51326
1588 1 1 11.6296 18.3605 3.413 0.447206
1589 1 1 13.3543 0.407321 3.49949 0.977372
505 1 1 12.8799 17.3785 2.65545 3.52143
7246 1 1 12.1677 16.6531 3.86624 0.689711
653 1 1 14.8709 18.5379 1.39023 1.39613
1269 1 1 14.6344 16.8866 3.44992 1.03239
1129 1 1 16.4067 15.9105 0.687868 0.726034
7744 1 1 17.1299 18.3818 2.03491 2.55502
1367 1 1 17.2595 16.001 1.27574 1.24637
109 1 1 1.35379 1.97455 2.81604 3.2752
845 1 1 1.19901 1.18166 4.10103 0.317597
2089 1 1 5.50987 0.7078 5.17911 0.396807
547 1 1 4.88336 1.15379 2.7878 2.00375
7197 1 1 4.59178 0.880111 3.69785 1.6395
6777 1 1 5.39623 2.12566 2.07075 0.802453
7982 1 1 8.36268 18.1022 3.99952 0.271303
171 1 1 6.22502 0.324563 2.93399 2.11431
1734 1 1 9.18036 1.4516 1.98091 0.3412
1466 1 1 9.39016 0.743737 1.19124 3.33468
2204 1 1 10.2985 0.0954672 2.88332 0.764097
7821 1 1 8.71423 18.7857 1.78609 0.80032
7539 1 1 11.4098 18.4317 36.5286 1.70693
2867 1 1 13.9043 1.04957 4.53591 0.851704
7422 1 1 11.662 18.1729 4.34138 0.414381
867 1 1 14.1198 18.5222 4.3133 0.696759
1007 1 1 14.9624 0.428795 3.14814 0.894534
772 1 1 15.4599 2.448 5.25527 0.825704
126 1 1 15.3597 2.24459 1.90922 1.36998
194 1 1 0.103956 1.16651 5.56442 0.425706
3242 1 1 16.4996 1.0216 3.74517 1.9478
7937 1 1 0.954801 2.80966 5.77364 1.01375
633 1 1 4.95066 2.26781 4.6221 1.00034
1738 1 1 2.14139 1.99997 4.14118 2.60381
2030 1 1 3.01655 1.29714 5.05866 0.963462
1365 1 1 4.08937 3.00297 2.44626 0.903549
1309 1 1 5.63213 0.0785213 4.01359 0.536016
1488 1 1 6.52793 2.15145 4.07421 0.37667
1543 1 1 8.5669 1.80413 3.58864 0.0562992
1661 1 1 10.7392 1.45282 3.36858 1.96232
7535 1 1 9.80433 1.28819 3.64718 0.647603
189 1 1 8.00345 0.829215 3.42022 1.29384
2177 1 1 9.8755 2.56471 2.84831 0.696578
544 1 1 9.78622 1.96446 5.36622 0.961944
1044 1 1 11.8636 1.88107 1.09832 0.519481
742 1 1 12.8057 2.40641 5.0204 0.0352519
3071 1 1 14.3894 2.56936 2.86671 0.912804
7830 1 1 15.792 1.77528 4.16028 0.62324
1354 1 1 16.9639 2.01926 3.1474 0.501251
7758 1 1 16.3227 2.69161 4.12268 1.05808
7423 1 1 16.0182 17.695 2.14579 0.895962
874 1 1 17.4739 3.5679 2.58947 0.308528
509 1 1 1.97168 5.12559 4.12624 2.13915
966 1 1 1.19041 5.67284 3.38177 0.558175
2033 1 1 3.34402 3.60893 4.06498 0.635615
2917 1 1 2.53798 4.48547 2.39601 4.17326
2559 1 1 3.05407 3.4696 2.836 3.10695
7785 1 1 5.14093 2.12704 3.44752 3.03633
1348 1 1 7.50473 1.98468 3.87307 0.98721
7215 1 1 5.59383 4.32554 3.32436 2.45248
656 1 1 6.33317 1.86375 3.13116 2.36184
7924 1 1 7.48617 3.04852 3.30378 1.60867
661 1 1 7.06173 3.62896 2.36632 0.597278
1098 1 1 8.10063 3.76069 5.2172 0.258609
6477 1 1 8.29825 4.12845 4.15656 4.44923
1302 1 1 8.97333 5.22964 4.86875 0.926268
418 1 1 9.22162 3.64831 4.59158 1.59656
6060 1 1 11.3849 1.80234 4.0707 0.577892
6136 1 1 11.6908 4.00425 4.58446 1.2478
387 1 1 12.7009 4.62899 3.43862 0.547689
7185 1 1 12.7743 3.45477 3.3615 3.47877
636 1 1 14.2861 2.50112 1.2956 2.02595
1539 1 1 15.5232 4.27951 1.83204 1.40331
1422 1 1 14.2366 3.91774 2.71078 0.510843
1041 1 1 15.8301 1.36902 2.33087 1.04994
2202 1 1 0.518024 3.36286 1.58515 2.32385
7284 1 1 16.9621 5.62886 6.04193 1.29295
1374 1 1 0.957853 4.34228 4.06945 1.49398
7841 1 1 3.01257 5.81352 2.54795 1.54491
6026 1 1 3.62818 4.89357 3.58489 0.453813
3 1 1 4.17243 5.60472 1.6376 0.259504
82 1 1 7.08916 4.0769 4.30682 1.27502
985 1 1 4.83134 5.33613 3.47981 2.06954
7123 1 1 6.42138 3.33299 3.72045 1.09284
533 1 1 6.03082 6.05129 5.38219 3.19436
214 1 1 7.25071 6.69431 5.7618 0.641025
7663 1 1 8.92752 4.31326 5.83126 2.787
1291 1 1 11.0839 3.96028 3.78321 1.2067
7644 1 1 12.45 7.11605 3.94617 0.723913
588 1 1 13.0715 3.53029 4.44444 0.175707
3586 1 1 15.1525 5.2121 2.8059 1.5721
7725 1 1 13.1651 5.49225 2.96524 0.987287
4139 1 1 18.584 4.35504 4.01113 3.63678
928 1 1 1.79481 7.10262 3.01863 0.393514
7646 1 1 16.0062 6.59253 5.84242 0.746823
7992 1 1 18.4809 6.03572 4.79036 0.902311
1002 1 1 3.89556 5.81943 4.02101 2.45436
6804 1 1 0.175392 6.06166 5.60488 1.7068
2162 1 1 2.12381 6.74094 5.10127 0.897854
153 1 1 5.30402 7.19954 3.67454 3.18742
5747 1 1 7.26969 6.30849 3.47043 4.50181
2608 1 1 7.5253 6.98403 2.22876 0.535018
117 1 1 8.3307 7.2696 4.51998 0.588636
2311 1 1 4.9816 7.65337 5.53776 2.53185
7683 1 1 6.89195 6.78008 4.30959 2.01541
2589 1 1 7.76914 5.44902 4.95522 1.06163
553 1 1 9.84755 5.88853 4.53634 0.0757532
7782 1 1 12.0964 5.75296 5.39665 1.12767
1784 1 1 11.5092 7.05727 3.31363 1.0781
1460 1 1 10.9132 6.2085 4.79509 2.69186
1927 1 1 12.6531 5.81702 4.35798 0.645281
591 1 1 13.1006 6.35417 5.35668 0.643748
240 1 1 14.4378 5.86254 3.50755 1.20181
102 1 1 15.1412 6.8207 4.26248 1.29007
2798 1 1 16.8257 6.68939 5.30559 0.904045
1728 1 1 0.0638051 7.86694 3.67153 1.56856
107 1 1 0.941752 9.61121 3.87541 2.88166
667 1 1 16.0925 8.8273 4.37312 0.957869
7242 1 1 2.53957 7.80327 3.58021 0.896036
7641 1 1 1.06923 8.76774 6.04886 4.22048
925 1 1 2.64936 8.71174 4.80187 0.121365
1717 1 1 4.69044 7.11512 0.555169 2.90817
5817 1 1 5.20458 7.90503 2.65485 2.60396
1217 1 1 8.25608 7.73421 1.80263 0.773005
404 1 1 4.48122 8.55405 6.07074 0.638099
1194 1 1 8.09507 10.4206 3.16668 0.217433
604 1 1 10.1063 7.40283 2.89734 1.45887
345 1 1 7.7662 8.85212 3.46381 0.535755
7538 1 1 11.8662 9.46905 2.88619 0.0776839
7322 1 1 10.4539 6.15873 2.09143 0.782217
216 1 1 10.4399 8.75179 3.70376 0.609052
1069 1 1 11.9824 8.49092 3.72778 1.56023
557 1 1 11.3089 8.17574 2.95715 2.17382
1833 1 1 12.7657 8.9721 3.01169 0.344125
7739 1 1 13.1762 8.77073 4.00467 5.40836
6619 1 1 12.7397 6.70129 2.73798 0.507075
7756 1 1 13.1188 8.28376 5.12649 3.10885
7983 1 1 16.5324 6.37519 4.23987 2.90334
957 1 1 13.9857 6.00062 6.00841 1.13929
622 1 1 16.0427 7.45766 2.65964 0.287441
7795 1 1 15.9834 10.3371 3.77268 0.976683
2151 1 1 17.0172 8.13424 3.81148 0.88819
230 1 1 18.5545 9.61502 4.61351 0.405989
765 1 1 1.74379 10.4784 4.61366 1.32786
626 1 1 4.30407 7.69347 6.90973 2.34321
478 1 1 4.88709 10.597 3.71395 1.02625
842 1 1 5.6575 7.22877 4.6769 1.54078
7472 1 1 7.44267 7.80587 3.73175 2.33937
983 1 1 6.33936 8.68813 5.17329 1.31784
1105 1 1 10.122 11.4328 1.6693 6.52165
3068 1 1 12.1718 9.66731 4.08059 2.45306
3406 1 1 12.5013 10.576 0.976734 2.34559
1802 1 1 13.6284 8.0663 3.02667 1.65369
2578 1 1 14.0124 10.7922 4.36921 2.57314
1250 1 1 14.4545 8.61513 4.92502 0.464899
7470 1 1 15.007 11.8123 3.75353 1.27898
1184 1 1 14.0001 9.66881 4.21079 0.791539
1677 1 1 15.353 9.07353 2.55401 3.26135
1287 1 1 18.1026 10.3089 2.55777 1.00519
1082 1 1 1.70488 10.9955 5.7448 1.50737
1709 1 1 17.1008 9.2819 4.87393 1.1345
369 1 1 2.96248 10.7472 3.86443 2.09506
203 1 1 1.64311 11.5486 3.76031 1.72352
7541 1 1 2.7163 14.0777 5.90678 1.52783
834 1 1 1.46555 12.4969 5.09012 1.25283
134 1 1 5.02329 12.3217 3.24249 1.82935
6842 1 1 4.18426 10.7985 4.85589 2.85143
6975 1 1 5.95949 12.8955 4.62089 0.455678
970 1 1 7.04223 13.5341 2.37729 1.21363
1475 1 1 6.69583 8.69915 3.89142 1.58229
95 1 1 7.33477 11.3884 2.81582 0.892917
1968 1 1 9.15207 10.4887 4.45243 4.26248
6693 1 1 10.5561 11.9921 2.75 4.57557
7798 1 1 11.3377 10.5448 3.26522 1.25855
7531 1 1 11.5851 12.9271 2.63497 3.08595
7156 1 1 12.3638 10.9632 4.04488 0.641981
1848 1 1 11.8669 11.5072 4.75138 0.0577
38 1 1 14.6299 10.5767 3.30208 1.39106
1072 1 1 15.6543 13.5505 4.0441 1.60133
2638 1 1 16.8569 12.7168 2.42728 1.05219
1438 1 1 16.2578 10.0746 4.74022 0.0453361
6563 1 1 0.912156 11.4826 2.55802 3.08845
1836 1 1 17.8846 13.0258 2.01073 2.16596
1793 1 1 18.6819 10.4558 1.2923 0.636551
259 1 1 0.722017 12.5968 3.1801 1.632
178 1 1 3.61387 11.7517 2.98475 0.69198
840 1 1 4.93909 13.4769 4.72427 1.49728
1264 1 1 6.02868 13.6252 3.73067 4.88173
487 1 1 8.56874 12.271 4.76045 1.91022
7139 1 1 6.20572 10.5783 2.83969 2.04193
630 1 1 8.69191 11.6229 2.68196 0.921887
3108 1 1 12.6212 13.6774 0.68496 2.31568
7834 1 1 12.0243 11.8663 3.03125 0.537152
1904 1 1 13.377 12.6467 4.51311 3.88862
1799 1 1 13.7851 12.8322 5.91205 0.597415
451 1 1 15.3214 12.4815 1.97071 0.642503
1187 1 1 15.9809 15.1396 6.30715 1.21085
7089 1 1 18.7278 13.1574 2.70299 0.543699
7670 1 1 16.9403 14.6088 3.68392 0.509568
5605 1 1 1.75677 14.8086 3.24666 2.04939
6665 1 1 4.17401 12.3498 3.85381 1.66993
245 1 1 4.43303 12.9625 2.7509 1.45412
7811 1 1 3.99593 14.0404 4.05918 0.426881
481 1 1 6.87775 13.5435 1.32627 3.19258
844 1 1 5.64347 17.1258 3.76599 1.64821
885 1 1 7.96025 14.2957 3.94731 0.643343
53 1 1 7.40527 12.4006 4.83374 0.928618
221 1 1 9.47737 13.1254 2.01573 0.661537
1295 1 1 9.66162 11.0162 2.92171 0.471661
734 1 1 9.50425 13.043 5.97774 1.04463
7893 1 1 10.5585 14.6367 2.37504 5.39527
7040 1 1 12.9296 12.3428 3.46428 0.111503
7551 1 1 11.6572 13.8443 5.47213 1.24162
7180 1 1 13.7571 13.6264 4.61848 1.96767
1200 1 1 13.2561 15.1681 3.00549 0.253326
888 1 1 14.6211 13.4092 5.58864 0.358452
1676 1 1 0.764188 13.6748 3.48072 1.21039
854 1 1 17.4329 14.6382 4.56173 0.727905
6762 1 1 18.4031 14.0439 3.2597 2.39223
1340 1 1 0.702899 14.6421 4.14156 0.766088
7826 1 1 17.8225 15.5231 2.11872 0.0478198
642 1 1 2.10111 16.1337 1.79014 1.55484
7840 1 1 3.85704 15.2213 2.77046 1.6271
7051 1 1 3.16803 16.6061 6.12046 1.79484
480 1 1 3.57635 16.6696 3.2595 0.19311
1505 1 1 4.79634 15.0529 4.41997 0.932816
1128 1 1 4.91267 15.7868 1.91053 1.34589
7174 1 1 5.64476 15.0532 2.65606 2.66449
800 1 1 6.77857 15.4841 3.49109 0.693083
1930 1 1 7.69342 15.7075 4.60461 2.35073
1940 1 1 9.20233 12.1254 1.66132 1.12776
6946 1 1 10.935 15.0719 4.10998 0.966681
7678 1 1 8.44186 14.2397 2.57272 0.122938
7856 1 1 9.33217 14.3435 5.14241 3.03836
3078 1 1 12.134 15.4175 4.23459 0.113113
433 1 1 9.30257 14.9003 3.97382 0.697071
1167 1 1 12.7076 13.7864 4.33309 1.3934