ITEM: TIMESTEP
0
ITEM: NUMBER OF ATOMS
8000
ITEM: BOX BOUNDS pp pp pp
0.0000000000000000e+00 1.8820720577620570e+01
0.0000000000000000e+00 1.8820720577620570e+01
0.0000000000000000e+00 3.7641441155241139e+01
ITEM: ATOMS id mass type x y z v_temp
1634 1 1 1.13686 1.35394 1.29615 2.42824
1142 1 1 0.226609 0.0298965 1.22221 2.4899
7604 1 1 2.41087 0.351593 0.512717 0.475676
7210 1 1 3.48985 0.674833 0.488256 1.51443
318 1 1 3.13019 0.475485 1.3673 3.27077
287 1 1 5.35376 1.09689 0.0356124 1.07042
7226 1 1 4.68038 1.25743 0.895839 2.51069
6076 1 1 6.93197 0.666575 0.413735 3.26515
7503 1 1 5.87285 1.0193 0.855459 4.05091
6017 1 1 9.55936 1.31757 0.526244 1.35463
7535 1 1 9.31409 0.478913 1.43369 1.11661
2020 1 1 10.5122 0.554781 0.677889 0.914767
696 1 1 11.5149 0.886611 0.409786 0.305549
383 1 1 12.8094 0.863809 1.25113 2.76311
640 1 1 12.9633 0.971726 0.203438 0.718895
7930 1 1 14.2475 0.762608 0.77034 0.73343
554 1 1 16.8394 0.624597 0.197918 1.65788
7471 1 1 17.4974 0.727994 1.02246 2.83681
1198 1 1 18.4929 0.94822 0.960121 1.4506
576 1 1 0.725307 2.31579 1.33724 2.86168
115 1 1 0.141242 1.72181 0.216784 1.40495
816 1 1 1.71886 2.19104 0.425423 2.46859
6995 1 1 3.73351 2.16758 1.2709 0.405902
2126 1 1 5.50165 2.0102 1.23107 0.876948
172 1 1 5.36446 2.35761 0.059806 4.40933
5756 1 1 6.36891 2.69372 0.097849 0.630195
6659 1 1 8.4026 2.4293 1.1154 2.22558
1206 1 1 8.45107 1.88852 0.307748 0.639262
7660 1 1 7.46934 2.61408 0.755374 0.410986
2305 1 1 9.91493 2.35228 1.18565 3.93439
7725 1 1 10.7188 1.70424 0.438803 1.43277
6691 1 1 10.436 2.63717 0.254527 2.79229
1308 1 1 11.4324 2.81492 0.943106 1.49775
1269 1 1 12.5197 1.79856 1.13075 1.91736
6873 1 1 12.0714 1.78846 0.248358 0.507216
7830 1 1 14.1356 1.77682 0.431413 1.25083
7423 1 1 13.75 2.67596 0.517923 0.814163
1344 1 1 15.2131 1.87205 0.51756 1.37409
7998 1 1 16.5927 2.57689 1.36652 0.941836
18 1 1 18.2167 2.82854 0.940628 0.207081
47 1 1 1.01029 4.17863 1.02026 1.53069
366 1 1 1.07264 2.90339 0.162425 5.58606
1481 1 1 1.42852 2.95243 1.14116 2.18055
7456 1 1 2.85749 4.05821 1.21692 0.852365
7697 1 1 1.62991 3.71167 0.197691 2.76781
402 1 1 3.76371 3.83645 0.621306 3.67812
879 1 1 4.12238 2.90533 0.209477 1.12362
7667 1 1 5.21806 3.39302 0.648685 3.54546
464 1 1 7.74921 4.21602 0.542929 4.78843
543 1 1 9.29498 3.21936 1.2407 2.44904
2348 1 1 8.7717 3.8503 0.176631 3.01341
7010 1 1 12.6297 2.96481 1.08225 2.18532
73 1 1 12.3145 4.24207 0.102254 3.48326
151 1 1 17.1231 4.19873 0.803188 0.697033
1315 1 1 16.0188 3.33835 0.757775 0.490531
6648 1 1 18.7594 3.5936 0.771647 2.42172
762 1 1 0.104679 4.65698 0.675082 0.6629
791 1 1 0.953545 4.48151 0.00247446 0.98245
7980 1 1 0.707833 5.52106 0.899041 2.50761
802 1 1 2.70562 4.77099 0.39375 0.148034
7879 1 1 4.12717 4.9428 0.932697 6.61191
7631 1 1 5.37651 4.50104 0.409294 0.581137
548 1 1 6.0038 5.46366 1.16433 1.51609
217 1 1 6.57552 4.49739 0.674736 1.39894
1076 1 1 8.38509 4.59759 1.32565 0.981611
945 1 1 7.32125 5.37934 0.628981 0.0887096
697 1 1 9.32133 4.91793 0.888676 2.57274
1330 1 1 11.3738 5.53971 1.18965 0.382919
1380 1 1 13.2278 4.52678 0.990536 1.41156
7911 1 1 15.0817 4.74358 0.529917 1.25693
2160 1 1 16.0184 5.46621 0.980831 1.16815
7937 1 1 17.1627 5.27491 1.03164 1.95501
1713 1 1 18.0332 4.39604 0.0851198 0.141607
924 1 1 0.399611 6.79526 0.381017 3.27849
34 1 1 0.111835 5.84006 0.0930999 1.2127
6762 1 1 1.78223 7.18005 0.660478 0.695453
1158 1 1 2.2094 5.97267 1.39702 1.46154
997 1 1 3.82502 6.59241 1.05192 0.355701
645 1 1 4.33283 5.98955 0.286796 0.960833
930 1 1 5.32493 6.72361 0.0206054 1.90845
568 1 1 5.86046 6.51159 1.42874 1.95741
7748 1 1 8.27903 6.96718 1.09793 0.556486
7921 1 1 7.46068 6.29071 1.4218 0.269347
5854 1 1 8.23828 6.12774 0.489232 1.59656
6669 1 1 10.8265 6.48879 1.44566 1.59951
6497 1 1 11.3517 7.09608 0.150164 1.34874
7420 1 1 10.5705 6.2981 0.164465 1.36454
214 1 1 12.5875 6.17447 1.30156 1.75404
721 1 1 11.9128 7.15918 1.31473 0.267107
181 1 1 13.3126 6.21039 0.567174 4.24318
193 1 1 13.1925 7.0626 1.25286 1.38383
7972 1 1 15.2519 6.41391 0.40599 2.99151
1359 1 1 14.5172 5.82114 0.815631 0.719047
7641 1 1 16.2432 6.58927 0.984109 0.95526
1318 1 1 1.19322 7.92153 1.26762 0.897017
6533 1 1 0.175632 7.61716 1.16962 2.37612
7351 1 1 2.5036 8.04619 0.882964 1.16269
7657 1 1 1.49152 8.36627 0.359868 0.0630035
925 1 1 4.29205 7.97261 1.08736 3.40835
6235 1 1 4.0861 8.64437 0.279874 1.44942
331 1 1 5.14568 7.73868 0.351683 0.914209
7958 1 1 7.22796 7.58235 0.599022 0.662114
178 1 1 6.07143 8.34805 0.258512 2.26185
7335 1 1 8.49824 8.43946 1.04119 0.570263
5813 1 1 7.98484 8.36743 0.112679 0.390743
6538 1 1 9.0952 7.59502 0.965035 0.293673
461 1 1 12.6181 8.66892 0.0768088 0.696241
7348 1 1 13.6607 7.88959 0.394976 1.92578
6705 1 1 15.7621 7.41961 0.295912 1.23002
498 1 1 14.8608 7.41006 1.14141 0.398967
7851 1 1 15.3504 8.55198 1.35029 1.56814
7800 1 1 16.7761 8.33057 0.682271 0.57032
230 1 1 18.0193 8.0118 1.0333 5.40294
7734 1 1 1.00393 9.41208 0.480216 1.54419
1637 1 1 2.57314 9.09071 1.26534 4.57902
6987 1 1 4.26715 9.95395 0.447303 0.509246
7791 1 1 3.98992 9.11287 1.19113 1.70475
5753 1 1 5.17956 8.91015 0.448486 1.37313
6566 1 1 5.62121 10.0034 0.375372 2.65732
1790 1 1 8.32382 9.76838 1.11869 1.60841
3250 1 1 9.27846 10.1257 0.661935 2.17208
1038 1 1 8.95197 9.21447 0.255296 0.793647
570 1 1 10.342 8.73138 1.16412 4.66286
7943 1 1 11.5167 9.70601 0.253678 2.96658
2177 1 1 10.6491 9.58998 0.729936 0.446713
86 1 1 13.0524 9.58557 0.123254 1.19459
7979 1 1 13.9751 9.16083 0.650432 0.408879
79 1 1 15.5943 8.99117 0.452335 1.0501
6241 1 1 15.7871 9.86152 1.43036 1.46152
648 1 1 14.9258 9.89418 0.311896 3.15063
736 1 1 16.685 9.24528 1.17591 0.637429
1036 1 1 17.471 10.0782 0.616479 1.20977
884 1 1 18.1225 8.85395 0.326351 0.752048
340 1 1 0.718093 11.521 0.77112 3.57833
1350 1 1 1.7861 11.1084 1.39032 1.99104
6578 1 1 3.53111 10.2228 1.16962 2.41665
1172 1 1 3.27213 11.1838 0.786879 1.62988
639 1 1 4.62415 11.2044 0.42127 2.31121
7891 1 1 8.64393 11.2572 0.767919 1.25251
7002 1 1 10.9323 10.668 0.946218 0.887983
1542 1 1 10.1543 10.9619 0.276399 0.568183
6536 1 1 11.3978 11.4613 0.0721209 0.240294
7156 1 1 13.2662 11.1705 0.420706 0.191772
7452 1 1 14.4964 11.0842 0.00681804 0.18378
7635 1 1 14.6178 11.1419 1.25455 1.36708
379 1 1 15.9272 10.7501 0.248711 0.360291
1074 1 1 17.7519 11.2308 1.13605 0.388198
7836 1 1 18.563 10.8383 0.415048 0.261856
7863 1 1 1.30387 13.0228 0.584081 3.34885
7446 1 1 0.155065 12.6157 1.12875 3.36021
6646 1 1 2.11616 11.9643 0.0140688 4.10588
8000 1 1 4.2942 12.5858 0.766884 1.80068
7056 1 1 3.13946 12.3935 0.150478 0.827069
7621 1 1 5.29543 11.8321 0.897206 0.288741
6252 1 1 6.38092 12.3308 0.762533 1.24479
532 1 1 7.26867 11.7895 0.565177 1.8229
7065 1 1 8.29464 12.6 0.699127 0.51449
7457 1 1 11.0891 11.7416 1.26362 1.05059
1178 1 1 10.464 12.9474 1.37216 2.97872
7704 1 1 11.9847 12.9449 0.190386 2.7304
6699 1 1 13.2984 12.4123 1.32872 3.22964
1976 1 1 14.2689 11.9391 0.63788 2.44255
57 1 1 15.2788 12.3558 0.287776 2.42535
234 1 1 16.1634 12.296 1.37169 1.56164
7189 1 1 18.1454 12.8264 0.466038 0.421072
7847 1 1 2.55553 13.2201 0.556055 1.82299
6243 1 1 3.59652 13.7095 0.188265 1.32341
7051 1 1 4.68509 13.7543 0.729991 0.402139
7610 1 1 6.85264 14.0356 0.703026 2.18318
1081 1 1 8.37222 14.2699 0.603151 0.416538
1144 1 1 7.37224 13.0375 1.13372 0.868851
6898 1 1 7.74249 13.4191 0.139075 0.254358
67 1 1 9.23804 13.1136 0.850968 3.2592
38 1 1 9.55852 14.0486 0.723485 3.51383
377 1 1 12.9429 13.8688 0.461363 0.909151
501 1 1 14.001 13.6402 0.700824 0.669349
7826 1 1 17.1922 13.2275 0.0581929 2.21875
7483 1 1 16.4154 13.7276 0.759494 0.668726
7052 1 1 17.4025 13.615 1.00139 0.444272
579 1 1 18.0423 14.3907 0.695502 0.944131
634 1 1 1.16854 14.9192 0.777566 1.30814
962 1 1 2.19443 14.7358 0.708686 2.13296
704 1 1 1.98601 15.624 1.2549 1.21672
1529 1 1 3.14817 14.647 0.0394205 2.54668
6321 1 1 4.32279 14.6308 1.01222 2.57769
203 1 1 5.68385 14.4998 1.02838 1.83259
154 1 1 5.72485 15.0021 0.0890499 0.8051
734 1 1 6.42545 15.1306 1.25398 0.120638
6379 1 1 7.5405 14.6038 1.10391 0.872426
1908 1 1 9.8665 15.482 0.826587 0.357962
7569 1 1 8.76972 15.3838 0.826322 1.67456
227 1 1 10.8765 14.6893 0.635582 1.13182
1134 1 1 11.6781 15.3436 0.802046 1.37644
22 1 1 12.6483 15.3187 1.19307 1.01855
1143 1 1 14.0899 15.4558 1.07936 1.90841
1474 1 1 15.2096 14.5571 1.16037 0.520848
7548 1 1 15.9194 14.6224 0.347755 0.944984
668 1 1 14.9877 15.9052 0.643634 1.5029
559 1 1 18.6648 15.016 1.17347 0.182189
2134 1 1 2.20944 16.909 0.120356 0.817109
311 1 1 2.41029 16.5992 1.05651 0.163148
7934 1 1 3.83693 16.3321 0.029663 0.576625
439 1 1 3.3778 16.1406 1.33712 0.356491
7767 1 1 5.31859 16.9275 0.234499 1.89659
399 1 1 4.72352 16.774 1.36626 0.291822
7214 1 1 5.11288 16.0655 0.796996 3.04807
7180 1 1 6.71823 15.9384 0.69133 1.64465
6835 1 1 6.54414 16.8913 0.0506585 2.74291
7206 1 1 7.77486 15.9755 0.822184 3.98083
7616 1 1 8.52725 16.6433 0.316684 1.80572
841 1 1 9.07363 17.276 1.30587 1.69232
7736 1 1 9.40808 16.415 0.717518 0.782583
7779 1 1 11.2357 16.7482 0.865525 0.505839
2343 1 1 12.0534 16.3291 0.579604 1.25478
1916 1 1 13.6261 16.5125 0.526057 2.59769
6913 1 1 14.8412 17.2736 0.806636 2.92896
2038 1 1 16.2253 16.3249 0.0802831 1.71922
7855 1 1 16.0995 16.1977 1.17614 1.05818
1042 1 1 17.373 16.1463 1.13114 0.602538
7999 1 1 17.7079 16.9509 0.134796 0.250581
1569 1 1 0.0336032 17.726 0.913356 1.99395
7265 1 1 2.46291 18.014 1.10136 1.42086
332 1 1 3.09372 18.4109 0.301543 3.33103
6777 1 1 3.57071 18.1292 1.1346 0.88303
6866 1 1 5.01835 18.8203 0.696253 3.3223
7267 1 1 5.42677 18.0924 0.0595692 1.40358
1729 1 1 6.13599 17.6398 0.835936 1.51818
43 1 1 6.2089 18.6148 1.11509 0.457486
7581 1 1 6.92777 17.9662 0.14001 0.910007
7678 1 1 7.44327 18.505 1.17 0.624774
1895 1 1 8.0471 17.7354 0.345665 1.30287
708 1 1 10.1219 18.3691 0.804604 1.29513
7961 1 1 11.1838 18.5591 0.524013 0.221933
7705 1 1 12.0572 17.4602 1.01969 3.9456
356 1 1 12.5059 17.7248 0.0978317 2.87116
6636 1 1 14.4344 18.1594 0.956501 0.634657
343 1 1 13.3976 18.3937 1.41267 1.92728
6723 1 1 15.4899 18.178 0.804166 0.736491
7088 1 1 16.4566 17.801 0.66974 1.76235
3499 1 1 17.8107 18.6255 1.01937 3.01249
7261 1 1 2.29339 0.298645 2.21084 2.04975
489 1 1 2.04053 1.30676 2.88292 1.70935
1168 1 1 4.33807 1.2522 2.84521 1.10453
445 1 1 4.19251 0.250019 1.5179 3.91699
1930 1 1 3.97229 0.0165607 2.73945 3.19603
1257 1 1 5.23324 0.628088 1.57143 1.10578
497 1 1 6.7975 0.519109 2.61883 0.314297
89 1 1 8.09996 0.894964 2.73651 0.189718
1208 1 1 7.29972 0.72334 1.73544 2.03986
7785 1 1 8.8711 1.23612 1.97626 0.865866
505 1 1 11.0914 1.24099 2.77989 0.633571
7745 1 1 10.3793 0.209461 2.31605 0.642837
1339 1 1 10.7192 1.3066 1.50092 0.947894
677 1 1 11.7615 1.18692 1.47225 0.829341
700 1 1 13.3209 0.119973 2.38375 0.429118
31 1 1 14.9592 1.05593 1.72427 0.876713
7478 1 1 14.8475 0.0382843 2.38489 3.95184
787 1 1 15.7109 0.0684092 1.52171 0.988105
351 1 1 16.6918 0.766568 1.50585 2.28046
7647 1 1 18.5356 0.520833 2.53314 2.13999
1718 1 1 0.805642 1.61416 2.56654 2.44849
1766 1 1 1.62732 2.24102 2.2608 0.664363
547 1 1 2.52043 2.88762 1.8817 2.85312
936 1 1 3.39017 1.85769 2.35449 0.601357
2026 1 1 5.11927 1.97695 2.64041 1.45953
569 1 1 4.41328 1.54776 1.84696 0.590361
566 1 1 6.41832 2.47923 2.47269 0.963874
633 1 1 7.25623 2.01956 1.50193 4.348
886 1 1 8.11827 2.68777 2.17575 2.80948
593 1 1 10.0476 2.48454 2.47191 3.96041
173 1 1 9.86027 1.48444 2.5118 3.16299
7332 1 1 9.12142 2.2616 2.06921 0.280068
21 1 1 12.1014 1.94342 2.39875 1.08468
7155 1 1 13.2736 2.83179 2.89508 0.610604
7669 1 1 15.7038 2.205 1.82467 3.24311
1020 1 1 14.7239 2.12183 2.39594 0.367004
859 1 1 15.6671 1.51965 2.60006 3.73447
7549 1 1 16.1045 2.8164 2.72871 0.197795
1348 1 1 17.3141 2.50329 2.67038 0.262627
7440 1 1 17.9121 2.03467 1.71156 0.7809
7903 1 1 0.497234 3.29103 2.37405 0.421898
7795 1 1 1.99653 3.7232 1.86105 1.90192
7284 1 1 3.39521 3.57371 2.22043 1.27025
6767 1 1 5.61002 4.01684 2.73832 1.06249
835 1 1 4.56177 3.59325 1.57806 1.81059
2824 1 1 4.67454 3.75144 2.66205 0.610264
7718 1 1 5.482 2.96208 2.34319 2.00652
7653 1 1 6.23036 3.964 1.79361 2.1278
7215 1 1 7.74858 3.81776 2.66864 0.256815
623 1 1 8.68608 3.92805 2.2311 1.19376
1416 1 1 7.31516 3.48736 1.52056 2.33668
7666 1 1 9.76584 3.34578 2.11173 4.20475
492 1 1 11.1008 3.10883 2.42183 0.564121
7387 1 1 11.1201 4.20222 1.49792 1.24917
6541 1 1 14.1758 3.91949 2.49017 1.92758
7246 1 1 15.4023 3.421 1.82946 1.02209
7938 1 1 16.0473 3.93722 2.86894 1.71603
651 1 1 16.7519 3.52417 1.67145 5.2416
7844 1 1 18.3072 4.29698 1.51758 5.82046
6975 1 1 0.739283 4.53835 2.87364 3.51978
5621 1 1 0.409261 4.60624 1.6181 3.12767
6396 1 1 0.390797 5.66068 2.01396 1.00827
7659 1 1 1.52498 5.32812 2.41408 2.1802
1237 1 1 3.96034 4.42332 2.49858 1.25685
15 1 1 3.74781 5.51651 1.76159 0.111652
7251 1 1 4.91105 4.91433 2.10294 0.939979
7924 1 1 5.83231 5.5147 2.14119 5.82214
661 1 1 6.38567 4.78953 2.4692 1.02042
7532 1 1 7.28027 4.87 1.5463 0.774568
585 1 1 7.59535 4.99285 2.52713 0.839571
934 1 1 9.44794 4.89377 2.49758 1.97891
6703 1 1 10.1772 4.44609 1.58013 0.0194053
1369 1 1 10.2562 5.45403 1.55424 0.920841
91 1 1 11.5022 4.86005 2.11945 1.81962
528 1 1 10.5429 4.93354 2.43388 1.59579
985 1 1 12.4602 5.07332 1.57859 0.81407
387 1 1 13.251 5.7496 2.47624 0.586012
1473 1 1 15.4438 4.61634 1.65761 1.93339
271 1 1 14.5247 5.65939 2.07164 0.233869
511 1 1 16.4921 4.68744 1.63482 1.42483
966 1 1 17.3431 4.50022 2.17937 0.34695
914 1 1 16.2722 5.28053 2.32998 0.27697
7432 1 1 18.0762 5.3575 1.79651 0.703355
7966 1 1 0.945085 6.45316 2.62085 0.680994
206 1 1 0.500246 6.73525 1.80878 0.193543
7967 1 1 1.69303 6.98339 1.81172 0.178914
442 1 1 2.18022 7.21767 2.83463 5.86744
7944 1 1 3.98437 6.67709 2.41778 1.84683
7803 1 1 4.66054 6.09136 1.67731 0.176651
1177 1 1 5.28419 6.74655 2.65125 1.68311
6136 1 1 6.72253 6.27849 2.17169 2.18202
7663 1 1 8.26612 5.8846 2.09349 1.07013
7138 1 1 7.93947 6.97556 2.27177 0.0896647
7904 1 1 9.2259 6.45736 1.53989 1.92274
1051 1 1 9.1776 6.02673 2.47891 0.221621
7422 1 1 10.178 6.37881 2.37355 3.3154
469 1 1 11.2353 6.08488 2.39993 0.12978
7611 1 1 12.222 5.96435 2.32443 1.08164
188 1 1 12.7955 6.9595 2.15681 0.193096
1329 1 1 13.7431 6.24228 1.64911 1.34319
5812 1 1 14.0325 7.02151 2.89017 2.78037
35 1 1 15.5986 6.23284 1.74946 0.646038
1377 1 1 14.6527 6.80616 2.01664 1.13989
2197 1 1 15.6428 6.13894 2.8732 2.40825
7544 1 1 16.959 6.15448 2.59042 4.62486
223 1 1 17.2817 7.11375 2.25245 0.72534
72 1 1 18.1633 7.07725 2.82264 2.90069
75 1 1 18.1404 6.57648 1.8715 0.981201
2320 1 1 1.38937 7.65542 2.51221 0.868978
5817 1 1 3.39291 7.34753 1.76466 1.13498
7322 1 1 5.73195 7.79882 2.55226 1.13661
626 1 1 4.77075 7.69507 2.76377 3.63167
7738 1 1 5.07313 7.27792 1.81294 1.29939
1648 1 1 7.83873 7.99641 1.69133 0.390046
571 1 1 8.25392 8.32212 2.67078 0.579067
5690 1 1 10.3836 8.43076 2.8124 1.95744
2244 1 1 11.7047 8.632 1.95753 0.323552
122 1 1 12.118 7.74759 2.62281 5.0226
1441 1 1 13.9524 7.75991 1.92028 0.669828
276 1 1 14.9305 8.06277 2.1695 3.41975
108 1 1 16.7087 7.83939 1.95452 1.10072
186 1 1 18.2658 7.9543 2.12199 1.2325
1314 1 1 0.915388 9.75722 1.8653 8.31582
1005 1 1 2.98341 9.3421 2.50206 2.3023
7326 1 1 5.27551 8.76806 2.03588 1.20952
1681 1 1 4.45795 9.46331 1.94153 0.502375
6874 1 1 6.92367 10.0812 1.99886 2.06602
1301 1 1 6.64448 8.90675 2.59208 0.705898
10 1 1 5.95493 9.67683 2.01096 3.95772
7459 1 1 7.94799 9.75418 2.26309 0.905591
765 1 1 9.05098 9.77888 2.03949 1.11329
1475 1 1 9.22725 8.73476 1.84741 0.517531
672 1 1 9.85374 9.47625 2.8714 0.415298
6896 1 1 10.4934 9.95155 1.74462 1.07974
7538 1 1 11.927 9.5949 1.80558 0.63893
1193 1 1 13.3283 8.9119 2.14996 2.191
7185 1 1 14.3442 8.86182 1.91982 1.36688
1906 1 1 14.7263 9.79318 1.60167 1.3303
1426 1 1 14.5293 9.56571 2.62821 2.95075
1478 1 1 16.0331 9.64694 2.46926 0.600765
6561 1 1 17.8493 8.8528 2.65109 2.10959
84 1 1 18.0659 10.0894 1.46685 1.87264
1093 1 1 1.06695 10.9277 2.30355 0.393033
300 1 1 0.435203 10.246 2.80663 1.75846
877 1 1 0.447416 11.4661 1.66432 1.58629
970 1 1 4.22209 10.5193 2.34867 3.30498
7482 1 1 3.01081 10.7781 2.87332 2.8912
7805 1 1 3.51679 11.3124 1.75482 2.72264
1211 1 1 5.27763 10.8358 1.63094 0.145277
290 1 1 6.95833 11.3816 2.86308 0.700692
7643 1 1 7.52088 10.9211 2.07951 0.868525
691 1 1 8.50555 10.914 2.59189 2.23424
955 1 1 9.44584 10.7516 1.67367 3.70939
1224 1 1 12.122 10.9862 1.62425 0.578123
232 1 1 12.3628 10.1914 2.76792 0.404433
7983 1 1 14.4708 11.0979 2.6773 0.843583
296 1 1 13.5269 11.2084 1.50879 0.499016
610 1 1 13.1096 10.4389 2.13142 0.598934
2017 1 1 16.2068 11.1335 1.83021 0.842499
712 1 1 17.1051 10.5998 1.77047 0.796606
7470 1 1 17.1663 11.5796 2.25904 4.33095
146 1 1 17.7794 10.2736 2.5049 0.790693
2662 1 1 18.3083 11.1769 2.06414 2.04445
1234 1 1 0.0306111 12.1176 2.69639 3.21017
7474 1 1 1.82885 12.8545 1.66126 1.28141
967 1 1 1.80337 11.9649 2.66725 0.675313
7060 1 1 2.8804 12.7354 1.67206 1.91101
369 1 1 2.21721 11.8798 1.73361 1.47549
7249 1 1 3.47534 12.3784 2.55901 0.608797
325 1 1 5.53053 12.4597 1.81316 4.13586
773 1 1 4.41209 12.3509 1.8124 1.32031
453 1 1 7.57007 12.2424 2.44343 1.22971
627 1 1 7.42644 11.8549 1.57582 1.37004
7004 1 1 9.3591 12.6273 1.88713 0.836719
1103 1 1 10.2803 12.8279 2.56371 0.820718
738 1 1 12.7824 12.7141 2.86046 3.20209
286 1 1 12.414 12.2412 2.01362 0.304444
574 1 1 14.1468 12.2961 2.2266 0.624884
1107 1 1 13.1835 11.7007 2.55486 0.900152
7512 1 1 15.3147 11.8945 1.45759 2.40656
973 1 1 15.7472 11.9887 2.75512 0.410866
7772 1 1 0.815856 13.9431 2.04645 2.37567
163 1 1 1.97939 13.9402 1.80342 3.57176
1486 1 1 3.98813 13.1988 2.89378 1.58979
7085 1 1 3.82675 13.2068 1.80385 1.08633
584 1 1 4.64549 14.1373 1.98662 0.6055
255 1 1 6.1952 13.3187 1.59653 2.3454
688 1 1 6.92283 13.3391 2.87617 5.35858
1128 1 1 6.28484 14.3399 2.26374 2.68286
7139 1 1 7.42438 14.1327 2.21695 0.978221
1912 1 1 8.73316 14.2817 1.75238 2.15312
1139 1 1 9.41584 14.3862 2.54717 3.09496
7545 1 1 11.1614 14.0729 2.65538 2.09382
423 1 1 11.4109 13.0444 1.57118 4.55215
6686 1 1 10.2054 14.0432 2.09932 1.75618
7834 1 1 13.1799 14.4431 1.50286 2.81195
6824 1 1 13.3484 13.3629 1.72674 3.3816
7040 1 1 13.7032 13.9557 2.49193 1.80137
6599 1 1 15.775 13.8004 1.90409 2.61485
389 1 1 14.5229 13.7442 1.7194 2.70566
375 1 1 16.9882 14.3367 2.61453 4.78247
7867 1 1 18.3846 13.1498 2.64795 0.518431
1567 1 1 18.7072 13.9757 1.47379 1.04599
2358 1 1 18.0965 14.1478 2.28928 2.89734
1445 1 1 1.17574 15.0513 1.95354 1.34761
7555 1 1 2.64013 15.871 2.04914 0.295819
757 1 1 3.27707 14.9578 1.54766 3.14338
1485 1 1 4.22945 15.2213 1.98331 2.54347
815 1 1 5.27164 15.0191 2.5767 0.350059
7926 1 1 6.33024 15.2699 2.75229 0.187964
749 1 1 7.56692 15.3011 1.91315 0.268887
6851 1 1 8.46431 15.1232 2.60814 0.598816
872 1 1 10.1191 15.0671 2.21743 0.52863
7700 1 1 8.73538 15.8877 1.72327 0.561179
7489 1 1 12.7171 15.5068 2.27259 0.338651
256 1 1 11.7437 15.6421 1.84021 0.872889
976 1 1 11.9938 14.6756 2.20965 0.93438
381 1 1 14.311 14.7175 2.0043 4.5399
273 1 1 15.3529 15.2898 2.10551 1.11185
7787 1 1 16.1383 14.906 1.60715 1.74275
2367 1 1 17.7384 15.1585 1.45191 0.46488
5999 1 1 1.42177 16.8707 1.48276 2.7357
7887 1 1 0.60233 16.1258 1.84518 1.71036
670 1 1 0.0660323 16.5363 2.64364 5.03815
7968 1 1 2.38127 16.8593 2.42337 0.623856
1509 1 1 1.6692 15.9806 2.27952 1.70395
6459 1 1 3.24009 17.2528 1.75273 1.2307
1446 1 1 3.90528 16.0893 2.40793 0.112669
1328 1 1 6.09875 16.0883 1.57888 0.599945
7613 1 1 6.99387 17.2573 1.81595 0.778215
3576 1 1 6.85207 16.1184 2.25181 0.862775
292 1 1 7.69583 16.2667 2.80797 0.108348
1582 1 1 9.45879 16.6263 2.8732 1.04943
814 1 1 10.1177 17.1142 1.47517 0.167204
7620 1 1 10.0015 16.3127 2.02775 1.37836
7230 1 1 11.523 17.1839 2.13711 0.399579
1505 1 1 10.5418 16.8569 2.77013 1.74614
7149 1 1 12.7641 16.8487 1.47666 2.06354
781 1 1 12.1947 16.187 2.80088 0.632857
2661 1 1 13.9527 16.6015 1.70116 0.148587
2150 1 1 15.3534 16.5268 2.15059 0.745196
629 1 1 16.6514 16.1188 2.70002 1.31118
1928 1 1 18.4291 16.9055 1.74475 2.38904
2033 1 1 17.8081 17.2195 2.74251 1.00928
7188 1 1 0.661792 18.6697 2.69966 0.729378
686 1 1 0.410988 17.7273 2.46374 1.64025
7585 1 1 2.19808 17.94 2.46698 0.757669
1140 1 1 3.36176 18.1171 2.40102 3.17494
1453 1 1 4.32517 17.8249 2.64766 2.45813
487 1 1 5.55233 17.6358 2.73387 2.78194
7754 1 1 4.55497 17.896 1.48674 1.07954
605 1 1 8.77676 18.7844 2.45941 2.62689
7996 1 1 9.08684 17.551 2.38641 2.36485
829 1 1 8.77532 18.3459 1.45709 2.05425
450 1 1 10.1493 17.8882 2.39926 1.5349
6027 1 1 11.3315 17.9753 2.796 0.883223
7987 1 1 11.0471 18.2071 1.48617 0.392155
6673 1 1 12.2669 18.4683 1.85444 1.70523
1785 1 1 13.2296 17.6608 2.29884 3.83691
2106 1 1 14.1859 18.145 2.85452 0.18205
1110 1 1 14.6804 17.4886 1.79914 0.113608
1200 1 1 15.2891 18.0691 2.748 0.955446
129 1 1 16.3707 17.4094 2.28536 3.40151
788 1 1 17.3681 17.7226 1.63698 0.658326
194 1 1 18.5142 18.4003 1.96458 0.954314
310 1 1 0.163043 1.26433 3.44548 0.560376
915 1 1 1.29387 0.625359 3.13917 1.46821
7122 1 1 2.46122 0.134212 3.95956 1.75491
175 1 1 3.02977 1.12555 3.01636 1.11722
1367 1 1 4.27828 0.645639 3.81801 1.01713
7123 1 1 5.39821 0.71313 2.90523 0.674449
1331 1 1 6.24383 1.34273 2.95985 0.651625
7762 1 1 6.76475 0.501514 4.05431 0.159418
293 1 1 7.99972 0.161006 3.40965 2.6337
7964 1 1 7.9685 1.12876 3.73979 0.236222
1658 1 1 9.54968 0.744645 3.10363 1.66461
1749 1 1 9.86024 0.409024 4.05304 3.9069
671 1 1 10.9882 0.76676 3.8945 0.537901
1213 1 1 12.0878 0.942221 3.31274 0.49027
1704 1 1 11.7977 0.0430395 3.71909 0.475484
180 1 1 13.4094 0.713474 3.55763 0.916551
906 1 1 14.5364 0.450455 3.38608 0.346283
982 1 1 15.6105 0.316798 3.27787 2.02313
427 1 1 16.5353 1.0559 3.29692 0.213427
7914 1 1 18.0069 1.43816 3.6996 1.84238
1205 1 1 18.3536 0.477306 3.88449 0.249533
1265 1 1 0.0237952 2.47676 4.15262 0.200721
1714 1 1 1.01192 2.27698 3.93986 0.339702
1373 1 1 2.13193 1.86937 4.1374 5.51896
480 1 1 3.6766 1.69787 3.74493 2.19876
656 1 1 3.96022 2.56514 3.14782 1.90921
56 1 1 5.56405 2.24928 3.53329 0.674466
7300 1 1 6.93028 1.72414 3.87234 2.50829
7896 1 1 5.91314 1.53753 4.19848 5.79964
1543 1 1 6.65798 2.71897 3.45349 2.35666
6986 1 1 7.76567 2.67743 3.58477 1.33586
96 1 1 8.64496 2.50194 4.01369 1.05074
1852 1 1 7.25751 1.52544 2.95734 0.207659
385 1 1 8.89941 1.56614 3.31246 1.21245
94 1 1 9.50208 1.86685 4.1806 3.04017
824 1 1 10.2442 2.59378 3.9422 1.36611
7989 1 1 11.6515 1.89817 3.51253 1.41717
553 1 1 11.779 2.6007 4.34135 0.0744593
100 1 1 12.8472 1.71501 3.19349 1.65213
742 1 1 14.4998 2.38269 4.2793 2.00796
946 1 1 14.9717 1.77218 3.45982 0.712214
1413 1 1 15.6004 2.86385 3.69917 1.62038
314 1 1 16.6933 2.09669 3.67967 0.19964
874 1 1 17.9524 2.70873 3.47903 1.72194
1279 1 1 2.68052 3.53472 3.64577 8.98458
109 1 1 1.70261 3.27321 3.24806 3.0799
3 1 1 3.92594 3.57769 3.58399 2.11092
1202 1 1 4.968 3.16697 3.48016 0.165018
527 1 1 6.28037 3.88977 4.13573 1.56507
1376 1 1 6.54096 3.82176 3.16524 0.925965
479 1 1 7.50897 4.01838 3.68102 1.22087
1378 1 1 8.62543 3.85686 3.67929 3.19949
2736 1 1 9.85083 3.54362 4.172 0.133803
3337 1 1 9.43249 3.14732 3.26745 2.20842
7625 1 1 10.2292 3.77747 3.23753 0.875881
1664 1 1 11.4634 3.16599 3.60612 1.28743
685 1 1 12.5302 4.12023 3.8775 1.2697
7250 1 1 13.9457 3.47023 3.98765 1.4135
602 1 1 15.8389 4.21852 4.02522 1.15384
7950 1 1 16.8818 3.22231 3.63472 3.43515
1239 1 1 18.1085 3.93172 2.95975 1.14185
155 1 1 18.1342 3.2596 4.30411 0.0537697
6152 1 1 0.512615 4.54327 4.19022 0.404352
7366 1 1 1.19758 5.49254 4.06874 1.89772
7841 1 1 0.168588 5.62937 3.83956 2.68762
1596 1 1 2.64797 5.60069 3.58404 6.29918
1717 1 1 1.63496 4.36367 3.52953 1.69495
158 1 1 3.27202 4.49489 3.59567 0.832242
1883 1 1 3.64453 5.5514 3.30717 1.30193
580 1 1 4.3682 4.86942 3.70237 0.62864
5739 1 1 8.27438 4.51268 3.047 2.06472
890 1 1 9.43374 4.76162 3.78997 4.05882
2103 1 1 10.4639 4.49812 4.23004 2.19828
140 1 1 10.7929 5.41781 3.32625 2.45441
281 1 1 11.3708 4.88117 4.03078 1.34174
1262 1 1 12.4985 5.63278 3.25632 4.78919
446 1 1 14.2827 4.35716 3.51125 1.13098
2075 1 1 13.9484 4.93993 4.23667 0.0132044
581 1 1 14.6744 5.23191 2.98166 2.34701
7468 1 1 15.6656 5.1363 3.03563 1.19815
2432 1 1 15.0569 4.97615 3.94508 4.12207
1336 1 1 17.0369 4.46462 4.14116 0.410804
148 1 1 16.9887 5.28045 3.00841 1.5414
190 1 1 18.2306 5.06816 3.27812 0.62761
3586 1 1 17.606 5.33022 4.27531 2.95193
7683 1 1 1.6709 6.55759 3.51897 0.544833
238 1 1 3.18487 6.57698 4.08221 1.84331
729 1 1 4.94656 6.44135 4.18698 0.455673
1754 1 1 4.38978 6.56365 3.41713 1.51459
440 1 1 5.88988 5.95971 3.59157 1.88498
2397 1 1 6.93579 6.01518 3.17759 0.439208
1405 1 1 6.2202 6.87977 4.10086 0.996126
1194 1 1 7.19288 6.03333 4.28504 0.475302
1466 1 1 7.859 6.99185 3.80611 2.65935
177 1 1 7.90316 5.88145 3.54857 1.36567
575 1 1 10.0165 6.59308 4.16328 0.152161
488 1 1 10.7145 6.44696 3.26648 1.4575
1759 1 1 12.6558 6.17029 4.21242 5.26704
6463 1 1 12.0183 6.81893 3.0223 3.28204
591 1 1 14.3251 6.06161 3.50526 5.7786
7273 1 1 16.9645 6.05 3.7291 2.93897
3565 1 1 16.2444 7.01739 3.49809 1.33437
444 1 1 18.1232 6.14605 3.32048 0.0447738
481 1 1 18.7417 6.65346 4.2958 0.514213
1942 1 1 0.207683 8.66848 3.1348 2.29052
1562 1 1 0.768532 7.31599 3.42833 0.631158
134 1 1 1.43353 7.52093 4.2286 0.944119
875 1 1 1.87892 8.13187 3.37537 0.509934
983 1 1 4.29849 7.61876 3.79421 1.07985
131 1 1 3.04729 7.88635 3.99771 0.824752
7862 1 1 5.67422 8.18298 3.78276 2.41845
541 1 1 6.7968 7.78453 3.00091 1.5239
1802 1 1 8.34559 8.66651 4.29646 2.36811
557 1 1 10.9738 7.45716 4.28818 3.40022
1069 1 1 10.8463 7.63736 3.17773 0.234886
1781 1 1 10.6684 8.57698 3.96039 2.54592
1422 1 1 13.2514 7.81625 2.90251 0.640247
1833 1 1 14.8027 7.85626 3.52565 1.5407
960 1 1 15.4985 8.40537 2.99254 0.738948
305 1 1 15.915 8.57002 3.90471 3.11667
1183 1 1 16.6045 8.07554 3.26107 1.65368
1000 1 1 18.1015 8.38518 3.65836 1.89036
1709 1 1 17.9915 7.25347 3.73991 1.02068
2357 1 1 1.32981 9.09031 3.15734 1.02801
2110 1 1 0.383782 9.91409 3.76746 0.636138
1399 1 1 1.12908 8.91538 4.17238 2.67511
1113 1 1 2.45896 9.23726 3.34879 2.76545
7845 1 1 1.68115 10.0639 2.99521 0.602542
114 1 1 3.46149 8.9162 3.53401 1.1037
1917 1 1 3.47747 10.1312 3.44469 1.5986
1280 1 1 4.91049 9.25012 2.92099 0.524297
478 1 1 6.3574 9.83158 4.12873 1.025
1415 1 1 6.65304 9.96759 3.15307 5.13498
378 1 1 8.23132 9.73286 3.55991 1.66084
374 1 1 7.51658 8.90899 3.40654 2.14794
7531 1 1 9.28092 9.23416 4.11933 1.35762
1460 1 1 11.4116 9.54412 3.69168 0.572994
641 1 1 15.336 9.80033 4.06099 1.10723
6875 1 1 16.9514 9.36611 2.93081 0.0883908
1870 1 1 18.3481 9.68747 3.11693 0.282917
6719 1 1 17.5705 9.83489 4.21629 0.0833846
1276 1 1 1.19979 10.8892 3.31961 1.193
336 1 1 0.277422 11.3742 4.28416 0.782732
916 1 1 1.01682 10.419 4.26191 1.29408
1863 1 1 1.76103 11.4165 4.0743 0.974101
2311 1 1 2.62226 10.4115 3.94369 2.51809
1728 1 1 4.02152 11.1071 3.56549 0.170127
408 1 1 5.63252 11.2798 4.16043 0.999278
1417 1 1 4.89542 10.3249 3.06256 1.60712
365 1 1 4.93779 11.4058 2.9005 1.89907
1465 1 1 6.48913 10.7818 3.73867 0.136553
1001 1 1 7.87313 11.4716 3.99238 0.322655
1046 1 1 7.7962 10.6402 3.26047 2.19267
277 1 1 9.87838 10.9498 2.92703 1.35191
64 1 1 8.95261 10.9513 3.89942 2.94778
241 1 1 9.10053 10.1663 3.14985 4.23101
1017 1 1 10.9239 11.4472 3.13906 1.15255
7573 1 1 10.4198 10.5816 3.84593 2.4169
7739 1 1 10.8086 10.4315 2.93881 0.587659
433 1 1 11.9609 11.1909 3.0447 1.52136
2062 1 1 12.1643 11.5529 4.12841 4.77499
1706 1 1 14.2373 10.6937 3.77677 1.90357
7444 1 1 13.2373 10.3114 3.83517 2.22265
386 1 1 13.318 11.4695 3.8901 3.91582
1533 1 1 15.1733 11.3345 3.66845 0.277284
683 1 1 17.0258 10.8385 2.97431 0.434807
1965 1 1 16.0032 10.3971 3.63765 7.6682
1349 1 1 18.4346 10.8333 3.59345 3.11422
7350 1 1 1.1364 12.6396 4.34127 0.530815
7927 1 1 2.40716 12.4881 4.17921 1.83506
243 1 1 2.42998 12.905 2.99391 0.720748
863 1 1 3.03724 11.9672 3.47386 2.62436
1958 1 1 4.72264 12.4139 2.96342 0.279151
344 1 1 6.05471 11.841 3.10574 1.66582
216 1 1 6.43283 12.4293 3.90988 2.11823
1163 1 1 7.41357 12.6508 3.84449 0.378794
699 1 1 9.45747 11.8746 2.91988 1.43556
823 1 1 8.76399 12.0943 3.8067 1.55919
1545 1 1 9.85946 11.766 3.97384 1.64718
1165 1 1 9.93358 12.9362 3.85757 2.00618
7984 1 1 10.9446 12.4268 3.69101 1.05578
6590 1 1 12.156 12.7134 4.15378 0.792308
6750 1 1 14.1765 11.7868 3.54598 0.386818
1187 1 1 14.2842 13.0081 2.89856 0.677904
1676 1 1 13.6242 12.7321 3.89921 0.364374
1087 1 1 16.6114 12.8172 3.10572 0.12406
1351 1 1 17.8241 11.6722 3.37069 0.904952
1528 1 1 0.704227 13.1194 2.91161 3.36179
1360 1 1 1.12141 14.4181 3.08709 0.753232
1116 1 1 1.95166 13.7484 3.08993 1.37919
6720 1 1 2.78466 14.0828 3.80422 2.05209
6563 1 1 1.92737 13.6576 4.1737 0.252708
1082 1 1 3.3186 13.1059 3.91623 1.12115
1526 1 1 4.01575 14.0552 4.30242 3.3285
7376 1 1 4.49323 13.2378 3.78483 1.88537
1448 1 1 5.11439 13.678 3.09681 0.547642
1210 1 1 7.83285 13.7906 3.1631 1.30836
6683 1 1 8.45259 13.2677 4.09307 0.801962
7464 1 1 7.6247 13.8888 4.15837 1.87384
7990 1 1 8.90389 14.0709 3.60419 1.98908
221 1 1 10.9318 14.3129 3.78291 1.91141
1590 1 1 14.0761 14.3504 3.41975 4.6367
1147 1 1 13.1596 13.7166 3.37014 0.438438
7993 1 1 14.5765 13.4885 3.89646 0.613553
818 1 1 15.2152 14.021 3.06666 1.57609
669 1 1 15.7386 14.294 3.98687 1.91685
2798 1 1 16.6588 13.2223 4.08467 0.16087
259 1 1 17.2263 14.4173 3.8306 1.43014
1971 1 1 18.6714 13.6364 3.56439 1.11023
240 1 1 17.8272 13.1358 4.08733 1.85366
608 1 1 0.703878 14.5059 3.94403 2.92351
126 1 1 0.539433 15.7104 3.28013 1.39627
1282 1 1 2.17941 14.753 2.92305 0.698338
2755 1 1 1.52161 15.4117 3.73653 3.07369
795 1 1 3.84391 14.5363 2.94249 1.36563
840 1 1 2.95749 15.5729 2.90859 0.618101
834 1 1 4.34468 15.512 3.11066 2.39319
1337 1 1 4.36121 15.5327 4.11208 2.05245
684 1 1 6.98553 14.58 3.82401 1.38653
504 1 1 7.37204 14.8749 2.89854 0.45447
902 1 1 7.34314 15.7112 4.18435 1.54939