ITEM: TIMESTEP
1600
ITEM: NUMBER OF ATOMS
8000
ITEM: BOX BOUNDS pp pp pp
0.0000000000000000e+00 1.8820720577620570e+01
0.0000000000000000e+00 1.8820720577620570e+01
0.0000000000000000e+00 3.7641441155241139e+01
ITEM: ATOMS id mass type x y z v_temp
129 1 1 1.93162 18.3268 37.5945 3.90979
7265 1 1 2.39634 1.48717 0.161573 1.20072
692 1 1 2.73119 2.2046 1.7029 0.922094
7267 1 1 3.09409 2.18836 36.5095 0.3567
7818 1 1 3.48789 0.338725 1.59617 0.721461
7996 1 1 5.75484 17.3935 36.7484 0.433218
7535 1 1 8.94416 2.90531 3.44268 0.541598
1196 1 1 10.9302 18.6293 2.00631 0.138229
1200 1 1 12.7228 16.8333 3.73331 2.39468
726 1 1 12.2181 3.21084 1.00287 0.970436
6814 1 1 16.7354 1.30723 0.520194 5.39149
881 1 1 14.8897 0.0135394 0.861188 0.644267
1269 1 1 17.0822 18.1368 37.3545 0.771471
511 1 1 14.9377 1.68157 2.4783 1.34648
576 1 1 17.644 3.63128 36.9831 2.01254
351 1 1 1.31059 1.76387 0.112745 0.77547
7647 1 1 18.6927 17.7123 35.6976 4.35068
6648 1 1 1.7139 4.33306 2.42407 0.352234
774 1 1 1.57096 3.13001 2.41416 0.809218
7226 1 1 4.48669 2.00806 1.98381 0.46047
547 1 1 5.16749 0.846226 1.89126 0.936877
6076 1 1 5.93778 1.93798 2.16646 0.110621
7503 1 1 6.65812 2.17487 0.884191 5.54303
7982 1 1 7.97624 0.912761 4.15333 1.13938
6986 1 1 9.33324 0.0796313 1.97781 5.22612
6855 1 1 8.17562 2.60314 36.9416 1.31247
7032 1 1 8.97131 3.26922 1.26737 1.05982
1806 1 1 13.5338 3.32241 0.224257 0.578137
593 1 1 10.2358 1.81935 37.4569 0.316861
1333 1 1 11.5607 1.33634 0.495422 0.961036
7669 1 1 12.3161 0.905294 2.18911 1.19623
1315 1 1 16.8694 2.40645 0.58066 0.248893
914 1 1 14.3231 18.0388 3.83436 3.23403
7301 1 1 14.6339 2.95059 37.2286 3.95008
1473 1 1 15.7671 2.34614 2.44187 1.39893
6868 1 1 16.6027 3.48709 0.34488 0.0685031
18 1 1 0.168293 1.22806 1.49104 0.343961
7440 1 1 16.7598 0.551659 1.8639 0.649058
47 1 1 17.3975 4.10844 3.06461 0.501791
447 1 1 0.258117 6.50343 37.0635 0.145317
508 1 1 1.94517 3.05531 1.25343 0.374967
6006 1 1 1.12409 3.57452 36.3828 0.188554
7660 1 1 4.01594 4.43678 0.700544 0.854974
7718 1 1 5.37115 4.04818 0.551078 2.32264
1309 1 1 6.68269 3.95373 2.51872 2.11888
7332 1 1 7.53841 1.94346 2.51524 0.335839
7653 1 1 7.50699 3.35912 1.98596 1.31312
6477 1 1 8.23057 1.84463 1.2035 2.83595
7666 1 1 10.5468 4.49119 2.67772 0.152268
73 1 1 11.904 2.26911 0.0686768 1.73114
1664 1 1 14.0909 4.23344 0.933163 6.0979
7911 1 1 13.5055 2.88831 36.9908 0.869285
271 1 1 13.1899 4.63224 0.353169 3.20863
515 1 1 11.8964 1.65451 1.51347 1.08348
966 1 1 15.8913 2.57069 0.344456 0.538823
7841 1 1 0.324074 3.00448 1.16227 1.62069
366 1 1 0.522329 4.35145 1.54666 0.835297
7937 1 1 18.5992 3.9622 1.94738 1.80289
7507 1 1 0.0853576 5.66859 1.73637 1.63787
3 1 1 4.01848 4.92853 2.12259 0.366934
7879 1 1 4.73628 5.65041 0.767577 2.22752
429 1 1 6.52749 6.00945 0.3673 2.12521
1850 1 1 5.77405 3.89707 1.61633 1.93906
529 1 1 6.61939 6.57682 1.77832 0.193014
7644 1 1 12.2513 6.09773 1.69791 0.254847
6942 1 1 5.41201 4.84999 3.44808 1.26304
7625 1 1 11.8286 5.24265 2.77454 1.62057
6703 1 1 9.36789 6.28444 2.24307 2.88469
7466 1 1 10.4383 5.4137 36.6892 2.98945
1329 1 1 14.1544 6.28911 0.364993 1.41836
6872 1 1 13.9831 0.576865 2.02108 4.07444
7432 1 1 17.4926 5.93757 2.08402 2.82051
7086 1 1 1.72446 1.56156 35.6724 0.88216
7641 1 1 2.33933 7.84024 3.5902 0.383781
6848 1 1 2.87701 6.61652 2.65917 2.54161
354 1 1 4.1565 7.73702 0.764632 1.16609
1045 1 1 3.07414 4.39084 1.28443 1.15654
945 1 1 6.33862 8.05859 0.227095 5.70264
7663 1 1 5.70598 5.8766 1.33617 2.06537
193 1 1 9.86063 4.19674 0.920473 1.56864
796 1 1 8.59823 6.06405 3.38068 0.601024
543 1 1 13.375 7.05756 3.34399 7.04086
6657 1 1 12.4623 8.70736 36.8983 1.13304
7348 1 1 12.39 5.22888 0.972436 1.96576
91 1 1 15.2371 7.22461 1.45563 1.04859
276 1 1 15.824 8.08516 0.0443516 0.73383
7972 1 1 14.1105 6.6878 2.13052 1.12992
79 1 1 15.9369 9.3487 2.88845 1.23632
7479 1 1 15.5702 5.51011 36.3612 3.05139
72 1 1 1.1633 6.67659 0.471341 1.35005
6762 1 1 1.2222 8.72082 1.1655 3.06546
6705 1 1 1.97646 9.05793 0.704186 1.54099
158 1 1 2.9886 8.58645 37.4921 2.17722
7424 1 1 1.68447 7.21791 36.8549 1.40445
7047 1 1 4.07467 8.77991 0.364504 1.32748
997 1 1 5.52227 6.0334 0.103129 2.06886
925 1 1 6.00012 6.65059 36.9548 2.26307
7803 1 1 4.57306 6.94694 37.6042 0.882379
6235 1 1 8.16596 9.4031 36.7887 1.8776
6874 1 1 7.88814 8.85983 0.983916 0.825479
7096 1 1 7.46953 7.99672 0.915704 0.553536
1820 1 1 7.99418 6.25148 36.4176 3.95108
214 1 1 9.10012 7.71144 1.97527 1.79377
6619 1 1 11.0083 7.38953 0.333929 0.969459
181 1 1 12.5702 9.36294 0.899091 1.26929
86 1 1 15.6729 8.42918 36.1055 1.56993
762 1 1 15.9312 7.03743 0.856593 0.583275
617 1 1 15.09 6.9214 0.0413804 1.39525
108 1 1 17.6097 7.24795 3.17681 0.922177
884 1 1 1.48951 9.5458 35.6792 0.802622
736 1 1 18.5821 9.64472 36.9036 2.42681
146 1 1 1.8213 11.4888 35.6969 1.13053
5397 1 1 0.619722 10.0542 0.882176 0.279152
442 1 1 1.94959 9.61909 37.2474 1.50115
7721 1 1 1.27522 10.5048 2.53306 1.73453
6126 1 1 5.40193 10.0726 1.51882 2.86065
538 1 1 2.76085 7.59872 1.06837 2.31215
178 1 1 3.70398 9.43173 1.40655 1.24863
5813 1 1 7.45468 9.19886 35.9816 3.09304
7326 1 1 6.16134 9.12715 37.5935 0.31676
1046 1 1 6.69814 9.42124 0.687436 0.747715
721 1 1 10.2652 10.9308 1.14572 1.74148
1224 1 1 7.74596 8.72799 1.97108 0.468023
570 1 1 7.81282 5.95097 0.747952 7.13616
6470 1 1 10.6555 9.02519 36.6327 0.851545
6933 1 1 11.2247 8.41852 0.808445 1.44576
6527 1 1 11.4853 11.3726 0.202254 1.63729
6693 1 1 12.5534 9.30018 2.16055 1.68931
349 1 1 14.4476 10.4377 35.8898 1.60707
1349 1 1 16.3182 10.9132 1.31904 1.20239
253 1 1 11.2668 7.16593 36.8313 0.639897
1074 1 1 15.8185 8.35649 1.36346 1.63805
877 1 1 17.7377 8.22539 36.3797 0.409852
712 1 1 16.3062 10.232 2.499 0.900529
7913 1 1 15.5766 10.8961 2.08796 2.79484
1036 1 1 17.663 8.67242 2.06564 1.45579
889 1 1 18.5482 10.1181 0.176336 0.924094
1093 1 1 1.49525 10.1926 1.53676 1.47536
1280 1 1 2.20844 10.9315 1.81637 0.266212
7011 1 1 4.67756 11.405 1.14306 0.36765
7144 1 1 5.7798 9.13351 35.9461 0.406671
1172 1 1 5.9294 10.2816 37.5695 1.75324
7621 1 1 4.27705 8.63663 1.26459 2.00576
6842 1 1 7.33591 10.2389 0.818669 2.26014
7065 1 1 8.25455 9.47485 0.24126 1.66323
10 1 1 7.74383 11.2172 2.36867 0.508978
7740 1 1 8.97103 9.78288 0.795625 1.52344
6750 1 1 14.2923 12.3396 1.52074 0.392214
574 1 1 13.3139 11.3847 0.333093 1.7386
7635 1 1 13.2498 10.6937 36.8068 0.77669
423 1 1 15.6855 11.9546 1.87761 3.77723
501 1 1 12.6773 11.9989 36.6849 1.50803
683 1 1 14.6794 10.1309 0.80046 1.21195
669 1 1 16.777 7.56594 1.3731 2.63447
247 1 1 16.9706 8.91089 1.37494 2.23776
5857 1 1 17.3462 8.81082 -0.00170951 1.83498
1528 1 1 0.190475 11.5707 2.04042 0.0920989
1350 1 1 3.3228 13.061 37.4237 1.69695
7060 1 1 1.10192 11.3552 1.96227 4.43894
7174 1 1 4.06983 12.1496 0.645774 2.11226
1681 1 1 6.34696 12.3406 0.937421 2.9748
584 1 1 5.61948 11.5827 1.90073 0.606105
365 1 1 8.4972 12.153 2.16597 0.374522
955 1 1 7.58522 11.358 0.0251879 0.681166
38 1 1 12.1681 11.1778 1.05734 2.14512
255 1 1 9.79269 14.3453 0.916278 1.4775
6752 1 1 10.3358 12.8229 36.9769 0.847601
6567 1 1 11.4784 12.1875 36.5155 2.1241
286 1 1 11.1274 12.3845 0.863266 2.45465
7545 1 1 12.9066 12.169 0.971564 1.18698
7634 1 1 13.965 12.1752 0.105892 0.41222
237 1 1 13.8534 12.8823 36.1135 1.61075
7483 1 1 17.1424 10.2832 0.429681 1.30344
6599 1 1 16.0543 9.48533 1.86451 0.144773
7089 1 1 17.3393 10.691 1.33669 2.64978
579 1 1 17.2261 13.1415 37.3809 3.59848
1234 1 1 16.9568 11.8734 0.148947 0.672233
7555 1 1 0.788242 13.5322 37.4786 0.332399
6788 1 1 5.11528 11.9269 37.3683 0.8662
8000 1 1 3.2777 14.3888 37.484 1.44458
6232 1 1 5.15137 13.871 0.58294 0.90552
1995 1 1 6.80074 15.0124 0.483714 1.83419
215 1 1 4.28779 16.679 3.69374 3.8092
815 1 1 6.01799 13.9523 1.0933 1.52481
1908 1 1 9.57388 14.3513 37.3798 1.47379
5866 1 1 8.69189 14.6005 1.70564 1.54239
53 1 1 9.89448 12.9756 0.608516 0.0725026
6686 1 1 11.9962 13.1507 0.893702 0.879176
7888 1 1 15.8083 13.4099 36.984 0.709147
7390 1 1 15.3475 15.2483 37.534 0.457538
234 1 1 16.9466 12.8937 1.12153 0.92407
375 1 1 16.32 13.8263 1.22032 1.56192
7826 1 1 17.3535 13.7829 1.44773 3.26036
634 1 1 15.6897 11.5564 0.196105 4.03907
7947 1 1 0.404315 13.8304 0.697255 0.18384
7968 1 1 1.29571 14.4404 37.4213 1.72796
1529 1 1 0.610756 14.5541 1.69641 0.183271
559 1 1 18.5438 14.9383 2.10842 3.52042
704 1 1 5.6185 12.6814 0.0821212 2.03114
7854 1 1 5.75028 14.4996 0.134038 1.1757
769 1 1 5.27635 13.3165 1.66415 0.145398
6379 1 1 6.87771 11.4486 0.962155 1.17943
7926 1 1 2.93234 16.1431 0.393972 0.271456
504 1 1 5.2601 15.779 1.68155 4.18281
6600 1 1 6.04162 16.7979 2.04589 0.364419
1150 1 1 9.11953 14.3719 36.0942 1.91119
7457 1 1 10.2177 16.0696 0.445396 0.202575
377 1 1 9.15415 15.2981 2.47079 1.11156
746 1 1 17.8994 15.9615 36.9504 0.938899
1042 1 1 16.6913 15.0368 1.07903 1.59785
629 1 1 15.5039 14.4057 0.863767 0.551065
558 1 1 2.5043 14.9789 0.0572107 2.73565
7869 1 1 17.3937 14.4575 36.2748 2.23829
7951 1 1 17.4026 16.2013 1.22022 1.0857
7604 1 1 2.75573 0.817918 0.741332 1.46108
1485 1 1 2.75263 17.2103 35.7226 1.07262
1481 1 1 3.54123 16.7901 1.04673 3.02553
775 1 1 5.01088 18.1447 36.5095 0.854032
7569 1 1 5.80398 15.7331 0.700151 1.28886
7206 1 1 8.3371 17.5648 37.3066 1.91685
6914 1 1 7.70697 17.1624 2.67801 1.13312
227 1 1 10.5125 17.115 2.24153 1.61281
708 1 1 11.5622 15.8995 37.0821 1.37986
7550 1 1 10.8898 18.5392 0.44815 3.85397
7341 1 1 12.3156 16.8134 0.063481 2.14706
1110 1 1 12.9026 16.8794 1.30855 0.791891
22 1 1 15.1787 17.6447 0.205019 0.361497
356 1 1 13.1389 17.8755 0.86856 2.53128
7202 1 1 15.8447 15.4011 1.57939 0.323418
7999 1 1 15.7883 16.7891 2.02805 2.06082
6845 1 1 18.1008 18.6675 0.30032 0.983508
6777 1 1 1.81897 0.516946 0.00990731 0.0968336
194 1 1 0.673691 0.871348 37.0947 3.03328
6713 1 1 2.57172 17.5261 0.182028 0.216956
6835 1 1 5.54082 18.3421 1.21691 1.74692
1573 1 1 5.34169 18.7719 2.41513 0.0798122
228 1 1 6.34508 16.7431 36.2181 1.92475
3576 1 1 8.45184 18.7491 37.2287 0.664511
1206 1 1 9.08197 18.1494 1.20727 0.811241
1139 1 1 10.1203 18.6072 1.27249 1.35837
2020 1 1 11.8618 17.1831 35.5537 0.187781
1339 1 1 11.4022 0.650732 1.13429 0.152036
338 1 1 10.681 17.8455 1.36798 1.15101
6636 1 1 15.6605 16.7013 0.330491 0.434837
7478 1 1 18.5946 1.1123 0.207198 2.36123
7261 1 1 18.6834 0.318146 1.25219 0.959544
2367 1 1 18.0321 17.1648 37.549 0.457545
33 1 1 17.5657 18.2431 34.5941 2.68867
1999 1 1 17.829 18.8152 2.22341 1.21955
1198 1 1 1.99895 18.4427 1.37052 0.881786
643 1 1 2.56673 0.748044 2.79519 3.17651
2347 1 1 6.40634 17.9877 3.79497 1.91644
6152 1 1 3.39483 1.45737 1.20789 3.26334
175 1 1 8.40562 0.848925 1.60545 1.59245
895 1 1 6.61356 1.25441 2.64301 1.76894
633 1 1 7.10649 1.21159 3.48648 1.41042
1446 1 1 7.42176 0.507716 1.02868 0.439801
1416 1 1 8.15954 18.5341 0.698997 2.79144
94 1 1 9.27469 0.981156 2.45625 2.65617
1749 1 1 11.5588 0.427711 2.7991 1.12062
824 1 1 9.86296 1.44227 3.40698 0.797557
6079 1 1 10.2043 0.134213 3.32577 0.043767
7745 1 1 12.4169 18.6928 0.768427 3.27924
383 1 1 15.6813 1.5996 1.23278 3.01337
677 1 1 14.3424 2.51984 0.782566 0.754276
608 1 1 1.35278 17.8115 2.33999 1.35784
31 1 1 1.48951 3.18355 37.5724 0.149179
1348 1 1 3.18058 2.1674 0.362307 0.525893
427 1 1 0.662749 4.05684 6.19803 5.06164
155 1 1 3.8124 2.48139 3.26148 2.82286
7903 1 1 0.900809 2.11928 2.75651 0.234244
109 1 1 4.32951 0.399715 2.58987 1.70293
406 1 1 3.12808 3.15103 1.8125 4.66012
936 1 1 4.02081 3.70221 1.68876 0.719747
2126 1 1 7.42669 1.79962 4.39402 0.195693
7539 1 1 10.9706 2.55754 3.93795 0.362997
1993 1 1 10.7031 1.04245 3.01375 0.372726
418 1 1 10.0508 2.86501 0.797812 3.31423
1213 1 1 10.9469 2.0668 2.07364 2.7376
100 1 1 10.839 2.38942 0.463849 0.484077
1308 1 1 13.6681 18.7827 1.12711 0.667343
1007 1 1 17.073 18.1713 2.1093 1.22911
1344 1 1 15.6101 0.770135 2.78818 1.59531
206 1 1 17.2902 2.92023 2.81245 0.839923
7088 1 1 17.461 1.0962 1.41997 0.188078
7980 1 1 16.7707 1.99189 2.94151 2.28643
7646 1 1 18.6748 4.40238 2.81015 2.98299
6995 1 1 0.266754 5.45086 2.97044 2.44498
875 1 1 3.19079 3.64706 0.73716 0.324006
1409 1 1 2.18091 5.13179 1.72507 2.30829
879 1 1 0.877622 3.25573 3.60157 0.951547
1237 1 1 5.07044 2.61195 2.93465 0.598347
7251 1 1 1.94612 2.64635 3.46533 4.08875
580 1 1 6.25199 2.9379 2.03286 3.52916
125 1 1 5.31055 4.01096 2.60828 1.44484
623 1 1 10.2606 6.25902 3.65958 2.38212
656 1 1 5.00368 2.88601 1.53255 0.696739
385 1 1 7.54256 2.79819 4.38839 3.27963
6659 1 1 9.24627 2.08576 2.79805 2.94458
934 1 1 9.92413 2.11879 1.82559 2.08329
3337 1 1 10.4251 5.20705 4.08996 1.00282
7588 1 1 11.0668 3.08761 1.80104 2.20882
505 1 1 13.3643 1.67532 1.31563 2.25511
7719 1 1 13.7418 5.77537 3.08589 0.733877
1377 1 1 14.3429 3.20143 2.19222 1.60134
1422 1 1 16.6321 3.61639 4.73956 0.359008
1183 1 1 15.2113 2.72883 1.48447 0.400784
651 1 1 17.6908 3.52276 1.99195 0.401636
7998 1 1 15.807 5.48669 1.76784 2.55797
314 1 1 17.3272 4.79587 1.19024 0.178126
802 1 1 18.1269 5.08614 1.92357 0.530172
1287 1 1 0.823813 4.66457 3.96624 4.14872
190 1 1 3.30258 6.56506 0.529178 2.58882
2824 1 1 3.50208 3.61591 2.79526 1.46327
1714 1 1 3.99463 7.47955 3.28089 2.24195
7631 1 1 4.24488 6.27152 2.30815 0.756335
1717 1 1 3.10233 5.3939 2.10077 0.0563483
1977 1 1 2.63116 5.88629 3.64666 0.0583575
661 1 1 6.13964 5.47431 2.28947 1.95234
6922 1 1 9.25027 4.38014 37.5484 0.535583
1076 1 1 8.88277 6.32866 1.00648 4.37195
6136 1 1 7.68803 5.75095 2.83644 0.415369
492 1 1 12.0481 6.85356 3.0199 0.73413
1051 1 1 13.0544 6.42015 2.52078 1.66253
582 1 1 7.83172 6.11737 1.778 5.92564
2221 1 1 14.0406 4.53086 2.50734 4.19771
7185 1 1 15.1713 4.82548 1.02261 0.375767
6241 1 1 15.708 4.28688 1.99544 2.90596
444 1 1 0.944338 5.08405 37.5434 0.647168
6975 1 1 0.987298 8.70528 2.57005 3.84445
1562 1 1 1.6143 6.80546 1.71195 0.509437
230 1 1 18.5899 8.91824 2.68243 0.243069
7659 1 1 1.17645 5.84029 2.45554 1.82803
7738 1 1 4.23203 7.741 1.84563 0.797483
7651 1 1 1.97089 7.16869 4.24306 2.5479
7215 1 1 5.71493 7.18773 0.665027 0.187297
1405 1 1 6.70406 5.87898 5.51947 0.690769
2348 1 1 9.92561 3.60992 1.73625 0.663153
1194 1 1 9.23448 8.54314 2.85258 0.721203
140 1 1 12.8767 8.3972 1.82504 0.468585
469 1 1 15.1551 4.67738 4.12437 2.6569
1193 1 1 14.1193 7.13454 0.824306 2.16543
1274 1 1 14.5856 8.87848 3.72281 4.87363
2197 1 1 16.0818 6.82772 37.063 2.2573
223 1 1 16.0048 5.8067 37.3033 0.7559
7358 1 1 16.8357 5.23127 3.1263 1.37859
6675 1 1 0.272889 6.58708 2.14849 2.89998
1596 1 1 1.11137 7.59954 1.21727 2.79475
1917 1 1 1.99875 9.08205 3.3053 0.120215
926 1 1 0.586011 7.56627 2.11993 0.881212
7791 1 1 2.50129 8.36817 4.41242 2.60158
7966 1 1 2.45543 10.149 2.90235 1.76783
5817 1 1 3.78168 5.61729 1.17864 0.656817
1002 1 1 1.92467 6.4884 3.16917 0.454368
626 1 1 5.46742 8.23196 2.74775 0.551286
615 1 1 6.40844 8.23527 1.78245 0.885648
7643 1 1 7.13206 6.65891 2.81566 0.0156984
1427 1 1 5.58643 7.08699 1.73652 1.49023
568 1 1 7.53698 7.58555 2.31053 1.60179
7748 1 1 8.24754 6.94218 2.58241 0.970522
6538 1 1 12.5364 7.85412 2.81151 1.27826
188 1 1 9.83587 7.71283 2.86825 1.56239
1069 1 1 11.8195 10.0825 2.34615 0.0514021
285 1 1 13.9665 8.80106 4.81341 0.758753
7021 1 1 14.1752 9.12448 0.818496 1.33103
7983 1 1 15.0071 9.05976 2.28697 1.25109
550 1 1 12.9543 7.37148 37.2628 5.20249
7717 1 1 18.0041 5.91706 1.07677 0.649464
1318 1 1 0.775929 8.59117 0.0418717 0.55043
6875 1 1 18.1911 9.39152 3.72799 3.17958
7280 1 1 18.0065 5.49051 2.93902 2.23904
107 1 1 16.1524 8.61715 3.60476 2.5552
2110 1 1 1.48531 7.98313 4.25897 0.527201
481 1 1 4.11084 10.5775 0.857334 7.44167
750 1 1 2.27609 11.2961 0.201064 1.40474
7482 1 1 4.63051 8.15835 4.7967 1.05335
1301 1 1 3.83478 8.70785 2.1758 2.12482
6987 1 1 4.99872 9.09796 2.19707 1.4049
1547 1 1 5.29644 8.42455 1.37781 0.3475
7335 1 1 7.3343 9.78736 2.52242 0.486484
1001 1 1 6.46036 9.54803 1.8036 3.45361
2177 1 1 9.54967 5.32219 1.6505 6.8375
7002 1 1 8.16092 9.66999 1.49942 0.918777
7943 1 1 10.4572 8.65082 1.70329 1.21693
2244 1 1 11.7996 8.33879 2.03155 0.00127252
6497 1 1 10.9981 9.4609 2.59791 7.43111
6463 1 1 10.9606 10.0661 0.668209 0.43569
6669 1 1 13.0859 7.94739 0.642015 0.388746
973 1 1 10.3625 9.68747 1.56451 4.98044
7851 1 1 16.933 9.52987 3.18295 0.410898
790 1 1 15.7733 10.47 3.34444 1.10463
6569 1 1 17.4976 9.71339 1.15394 0.810565
967 1 1 3.92768 9.66357 0.108688 1.13571
863 1 1 1.74334 10.1881 3.79478 1.31576
1790 1 1 6.66805 10.7464 2.1906 0.794146
1417 1 1 5.55315 10.0661 2.45001 0.890818
1542 1 1 8.19279 10.3896 2.99673 1.17782
232 1 1 12.4992 11.634 37.5473 2.32022
1107 1 1 10.4021 7.16655 1.47018 0.641986
7984 1 1 10.2135 12.9228 2.61937 5.04468
7156 1 1 10.9962 10.9172 2.99064 1.88669
653 1 1 14.0235 14.0241 2.25204 1.74231
296 1 1 15.4129 9.04131 0.414884 0.841186
6590 1 1 15.2318 12.6461 0.595256 0.444685
6939 1 1 12.9299 12.5709 2.25536 2.57249
84 1 1 15.531 10.3485 4.94721 0.341563
386 1 1 12.0525 10.9147 3.01362 0.423316
7470 1 1 15.6135 9.60617 3.96178 0.872145
818 1 1 14.8316 10.8548 2.87388 0.758895
7800 1 1 16.847 11.0022 2.37913 0.882001
7845 1 1 1.51037 10.8905 4.96364 4.69973
1360 1 1 0.349278 9.14566 1.83514 0.208543
259 1 1 18.5338 10.2095 1.91401 0.285701
7811 1 1 0.0287267 12.6804 1.73183 0.924333
340 1 1 3.18332 11.2435 1.23403 1.55753
6646 1 1 3.14235 12.4213 1.37113 0.605012
7805 1 1 2.2857 11.8371 36.4645 0.494906
773 1 1 2.07576 12.0136 1.21262 3.36656
834 1 1 3.80862 11.6885 1.96576 0.0710707
7248 1 1 5.87145 12.4448 2.45846 2.10526
290 1 1 5.88978 11.8611 4.16951 1.1444
7704 1 1 8.84505 11.6177 3.02468 2.81267
1165 1 1 6.92968 11.969 2.26109 2.90288
6946 1 1 8.85388 12.8987 3.0558 0.709456
4198 1 1 11.1855 11.4689 1.66558 0.685665
2814 1 1 10.9398 12.8534 1.95182 0.419845
7444 1 1 14.8375 13.0787 2.10025 0.412191
7867 1 1 12.9712 11.3928 1.69671 0.839211
1971 1 1 18.3425 12.9464 0.620645 0.455786
7855 1 1 1.26755 12.5998 0.926409 2.51741
7772 1 1 1.35566 11.0918 0.8026 0.379833
245 1 1 0.503169 12.0402 2.92178 1.49359
6650 1 1 2.47654 13.2509 1.2341 3.05189
7056 1 1 4.21156 12.9775 1.36482 2.18777
7610 1 1 7.49509 12.3256 4.25363 0.78195
452 1 1 6.45193 13.4028 0.265767 1.56022
1144 1 1 8.34665 11.5471 1.16874 0.554832
1448 1 1 6.231 13.3648 2.68853 2.24965
1210 1 1 7.6077 14.4426 0.714244 2.62168
1178 1 1 7.922 12.8465 3.56466 2.20311
6632 1 1 8.04869 13.385 4.43595 1.58155
1848 1 1 9.73188 14.4321 3.46141 3.75515
1103 1 1 10.6505 13.506 1.14748 2.12216
6824 1 1 11.2712 14.2525 2.11864 0.971823
1187 1 1 14.8516 13.6003 3.0596 0.414513
1143 1 1 16.1268 11.3595 3.39868 5.40629
7853 1 1 14.5993 14.5471 0.45408 1.51026
393 1 1 16.171 13.0061 0.258105 1.67658
7887 1 1 0.973735 13.6586 2.6683 0.744784
1604 1 1 0.0929176 14.4401 5.08749 2.19431
757 1 1 2.37763 16.9854 1.20619 3.82232
1509 1 1 1.43653 16.641 2.84084 3.63724
7957 1 1 2.12911 15.6409 1.04544 1.76896
6243 1 1 3.47909 13.9828 36.5098 1.18253
445 1 1 3.97624 12.4188 2.78729 0.995133
399 1 1 5.08737 12.2016 3.59538 0.120234
1527 1 1 5.89831 14.7251 1.67226 2.07099
6851 1 1 9.00976 16.7606 0.641325 1.04487
902 1 1 8.20083 15.2152 2.52013 0.588938
829 1 1 7.48383 13.2434 0.948166 0.280075
7040 1 1 10.5522 16.1144 1.68863 0.774815
2661 1 1 9.6201 14.864 4.991 0.115864
3108 1 1 10.8612 15.5664 3.51364 1.39574
6723 1 1 13.1271 14.2677 0.825051 0.820603
389 1 1 14.6506 15.2186 1.54009 0.64371
2345 1 1 14.3678 12.9678 37.0692 1.4728
7548 1 1 16.2388 12.0387 0.972993 0.916279
2287 1 1 15.0633 16.0928 0.797755 3.0558
1439 1 1 13.999 17.3358 2.92296 1.71319
1638 1 1 17.3773 15.1817 1.81715 0.967387
785 1 1 4.00581 17.2465 2.51225 1.7215
328 1 1 0.55326 16.7626 2.27919 0.439889
844 1 1 3.43335 15.7029 1.39424 0.573561
332 1 1 2.91633 17.3542 2.09693 2.17895
6459 1 1 4.26171 13.6186 2.30982 0.491874
7613 1 1 5.37397 0.0668238 0.0228451 2.51091
728 1 1 5.81145 14.4382 4.4036 0.0479075
7856 1 1 8.19779 16.652 4.24951 3.74938
1432 1 1 7.07706 14.6718 1.80805 0.877327
1582 1 1 8.82189 17.1988 1.92868 0.54587
854 1 1 11.5617 15.5846 2.23541 2.19542
416 1 1 9.56124 16.4972 2.12404 1.87156
343 1 1 9.84135 17.4151 0.522149 0.639225
7149 1 1 11.7944 16.5618 2.05767 0.301155
1904 1 1 12.0138 14.803 2.7197 0.729205
1406 1 1 15.3058 14.5586 3.01117 0.611965
40 1 1 14.9426 17.1186 2.4024 0.464132
2409 1 1 17.7297 14.1645 2.47549 4.71903
5999 1 1 18.4909 16.2133 1.55008 1.02899
1634 1 1 1.40297 15.7064 3.49106 3.7819
318 1 1 2.70568 18.3183 36.4492 5.63861
686 1 1 2.58781 16.2589 1.84496 3.46072
1729 1 1 4.11433 17.8858 0.896128 1.18583
6866 1 1 7.03544 17.784 1.94287 1.43968
1328 1 1 8.19459 17.907 2.13343 0.390271
7785 1 1 6.63163 0.976975 1.51298 0.513807
605 1 1 7.78643 16.9904 0.819579 2.51945
1785 1 1 10.7639 18.017 3.05463 1.64373
7230 1 1 10.5262 17.0092 4.84378 1.86044
6673 1 1 10.4546 18.1985 4.75531 0.877385
696 1 1 11.7681 17.6797 1.55776 0.734289
841 1 1 12.0361 17.5595 3.05102 0.281709
2270 1 1 14.0559 0.208541 3.17499 4.39403
273 1 1 13.4816 18.1574 36.9595 0.326446
859 1 1 17.1152 17.2605 0.983447 0.383005
180 1 1 15.8503 17.767 2.35559 2.84222
1186 1 1 14.8434 1.05217 1.70619 0.120614
7930 1 1 1.48223 0.535283 0.998645 1.09005
7188 1 1 18.4226 2.60171 2.92118 0.714988
1926 1 1 0.683025 15.2767 4.39119 1.6572
7938 1 1 1.42758 2.17616 1.575 1.10892
7934 1 1 4.04486 18.2413 2.25073 0.792494
489 1 1 2.06331 1.73133 2.65306 0.409353
3146 1 1 3.44793 0.0582077 3.17125 2.25861
1930 1 1 5.06801 18.696 3.48317 4.31827
1140 1 1 6.299 18.2733 2.51227 0.513578
7122 1 1 3.1956 18.119 4.31726 3.47576
1331 1 1 4.96596 17.6075 3.94402 1.72521
6321 1 1 4.79549 1.92334 4.94307 1.39974
1168 1 1 7.23097 18.4627 3.0672 0.544394
497 1 1 8.28529 0.0574347 2.80872 0.226509
566 1 1 7.32256 0.432997 2.27277 0.680259
1658 1 1 9.67918 17.9287 4.0383 1.3505
700 1 1 10.7813 2.18332 3.08423 0.942078
1708 1 1 9.31385 0.123934 3.79474 2.65145
906 1 1 11.5864 1.25668 3.35524 0.845456
2106 1 1 12.6967 18.6498 2.19303 3.07772
871 1 1 13.1186 0.377148 6.57765 1.2766
990 1 1 12.4385 17.9077 4.48751 0.879742
787 1 1 1.61065 17.6773 3.81748 1.41596
982 1 1 16.4658 3.00712 3.80802 0.147416
7950 1 1 11.6416 18.3292 3.74358 0.228281
1223 1 1 15.8165 1.7258 3.74769 0.788405
894 1 1 16.2785 0.693272 4.45556 2.81598
1265 1 1 17.35 0.926625 3.11356 0.85863
915 1 1 3.35002 1.29071 3.61785 0.490767
1279 1 1 3.04666 0.478584 4.04217 0.36475
611 1 1 2.39476 1.0912 4.55128 5.53699
1543 1 1 5.3427 1.44682 2.97488 1.51651
1208 1 1 6.37302 2.22746 3.64673 2.52979
886 1 1 8.1656 1.95194 6.49168 0.642521
96 1 1 8.79138 2.13232 4.12556 1.41601
2103 1 1 8.20558 2.14264 5.34516 0.0499482
553 1 1 13.0761 3.81956 2.65542 0.131974
640 1 1 12.6144 18.7833 3.21274 1.13993
409 1 1 13.3618 1.14053 3.33997 1.2487
387 1 1 14.5006 2.90884 5.08156 0.580621
1229 1 1 17.2644 1.92144 5.13879 1.10403
7246 1 1 15.0218 18.0962 2.83956 1.78405
7914 1 1 16.0983 4.55028 3.26901 1.08528
816 1 1 0.108303 5.86851 4.2542 1.42104
1338 1 1 18.334 4.48787 4.11673 1.39837
1805 1 1 1.45669 2.75038 5.408 0.284202
7284 1 1 2.47779 4.29714 3.34671 2.39617
509 1 1 3.12345 4.40534 2.38286 0.675491
1281 1 1 2.71866 4.11116 4.56359 0.749544
7123 1 1 3.1988 3.08265 3.60631 2.87361
56 1 1 8.44726 3.25839 4.27738 0.345797
585 1 1 8.14994 5.32266 3.83473 1.5739
528 1 1 7.82544 5.06147 4.69675 1.17839
2318 1 1 7.10762 5.02065 3.62999 0.174015
7989 1 1 8.81895 1.04142 3.4277 0.790953
177 1 1 9.9414 2.31547 4.2687 0.667479
7685 1 1 8.10115 4.36289 2.73759 0.639702
1661 1 1 11.4075 4.69174 1.66437 0.220166
1826 1 1 12.4595 4.42531 3.27464 3.59609
7725 1 1 16.2251 4.54104 5.1716 2.53325
7155 1 1 13.3557 4.00275 1.7202 1.08249
1203 1 1 14.3948 4.23427 3.57784 3.88608
1239 1 1 15.3657 3.22677 2.54859 1.36205
7468 1 1 16.4478 3.67796 2.56891 0.375273
148 1 1 17.4691 2.85153 4.0223 2.03829
1591 1 1 18.3426 1.86043 1.90933 3.75063
3932 1 1 17.4386 4.20422 6.6843 2.97609
6396 1 1 1.08835 5.8549 4.3883 5.27682
15 1 1 1.8213 3.84784 3.99602 1.87725
62 1 1 5.73706 3.13326 3.57941 0.904096
7532 1 1 5.60822 6.21869 3.49669 0.139767
691 1 1 6.72089 6.0366 4.35794 1.90959
1648 1 1 9.07818 4.06446 3.77527 1.60339
122 1 1 10.4008 3.17461 3.32755 0.354406
2455 1 1 10.8715 4.42148 4.95063 0.619905
1698 1 1 13.0832 6.04812 4.46242 1.73198
7422 1 1 13.7056 4.5785 4.64998 1.69866
6541 1 1 15.9976 5.7048 5.83814 0.781147
2075 1 1 12.7045 3.92645 5.94725 0.252653
2392 1 1 15.6235 5.66338 3.95605 0.058156
581 1 1 15.3966 3.59557 3.61305 2.59942
486 1 1 15.0221 6.11125 1.50159 0.150171
102 1 1 15.2368 7.4834 2.48858 0.675161
235 1 1 16.8552 4.70089 2.11658 2.94252
6533 1 1 1.91027 6.12558 5.27361 0.485839
7456 1 1 2.64535 7.5528 5.12543 4.80767
523 1 1 18.1329 4.45868 5.76123 1.31061
548 1 1 2.39254 5.13809 4.30797 3.35592
1883 1 1 3.61652 6.20841 3.15253 1.21975
6767 1 1 4.92147 7.26896 2.43608 2.39651
7921 1 1 5.13304 4.84742 2.00231 1.79073
1177 1 1 5.80941 7.78222 4.98752 1.67178
7904 1 1 5.43606 6.42069 2.55775 2.28968
455 1 1 9.97266 4.3115 4.49927 1.50728
980 1 1 11.4432 4.15153 3.35207 0.750066
1833 1 1 15.0797 5.86677 2.57575 0.461046
2017 1 1 14.1747 5.49195 4.27749 0.274367
591 1 1 16.2379 6.62716 2.08289 2.31251
1715 1 1 16.6647 7.0997 4.05135 5.52209
928 1 1 18.7494 7.34436 3.06194 2.89291
1637 1 1 16.9089 7.93128 4.78539 4.87704
1399 1 1 0.572441 8.09697 3.76394 1.22844
7795 1 1 0.899736 9.59729 3.39075 2.54742
134 1 1 5.28399 7.47131 4.15072 0.296836
1864 1 1 5.92222 7.24709 3.19007 1.65236
1334 1 1 8.09447 7.57376 5.62379 1.34055
7459 1 1 9.74186 10.303 2.95104 2.69797
7322 1 1 7.97773 6.21215 4.25955 1.25059
1927 1 1 12.1842 5.86235 3.70541 0.971203
5690 1 1 13.815 8.18702 4.02657 3.46496
277 1 1 11.6411 9.18159 1.34818 2.90129
648 1 1 12.0064 7.73293 3.85203 0.223224
985 1 1 12.039 7.20489 1.97563 0.125386
610 1 1 12.4138 9.97724 3.18241 3.27142
488 1 1 13.6078 7.37401 5.657 2.52271
5812 1 1 16.3948 6.31693 3.39705 0.21361
1537 1 1 15.0796 6.91533 3.44884 0.65715
960 1 1 16.8055 7.34211 6.58766 1.17404
913 1 1 16.4233 8.41959 2.6841 0.937169
114 1 1 2.22466 9.35386 4.26388 1.42811
2239 1 1 3.64688 8.53493 4.83996 1.13695
959 1 1 2.2348 10.8547 4.25107 0.378292
996 1 1 2.03782 9.40338 2.1734 2.33187
1863 1 1 5.35892 9.229 3.54374 2.47078
667 1 1 2.11531 8.32295 6.14093 1.84507
1415 1 1 6.74208 8.86155 2.84449 1.88521
344 1 1 6.20333 9.68481 3.67142 2.08695
1475 1 1 7.65901 11.605 3.40611 1.60981
1217 1 1 7.00691 7.7934 3.26536 2.04487
2874 1 1 7.31982 8.17234 4.18553 0.0363935
1781 1 1 9.3321 9.70207 1.80504 0.426478
7573 1 1 10.2678 10.2558 3.79633 1.4026
183 1 1 11.2773 7.6739 3.04728 2.40724
7138 1 1 12.3015 11.9664 3.09552 0.837552
1906 1 1 13.9146 8.69473 2.89998 0.294911
2320 1 1 13.9215 10.9069 1.19581 0.880729
738 1 1 11.3459 8.7137 3.53056 0.196307
240 1 1 15.7104 8.26267 4.59663 2.047
1942 1 1 15.3394 10.9128 7.03965 2.48282
6561 1 1 18.0267 11.3007 3.67716 0.231535
1113 1 1 1.59527 8.70535 4.9831 4.64904
1870 1 1 17.4946 7.89067 5.90542 0.164621
336 1 1 17.6069 9.80946 2.32008 1.71341
1793 1 1 0.909826 9.59069 6.12695 0.933735
1272 1 1 2.81625 10.7421 5.04627 0.440201
1728 1 1 1.6929 12.2924 4.59064 0.0834781
369 1 1 4.08551 10.3469 1.8516 1.87145
243 1 1 2.89273 12.1489 5.376 0.785085
2311 1 1 4.14318 9.69617 2.8153 6.41058
2980 1 1 6.65741 10.3432 4.88307 4.17488
970 1 1 3.80817 11.2245 5.19361 1.02742
1211 1 1 6.69804 10.4728 3.18606 1.04747
7538 1 1 9.4697 11.315 3.97323 0.522468
7798 1 1 7.78105 11.1666 5.00256 3.24049
378 1 1 9.81905 12.6206 3.94437 0.514726
221 1 1 10.2634 11.9227 3.28692 2.27579
6896 1 1 8.8239 10.6614 5.30213 0.371543
1487 1 1 11.6236 9.93035 3.78324 0.155171
1100 1 1 10.9572 12.7026 4.72554 1.65576
1965 1 1 15.5672 11.4495 5.77098 0.261997
1072 1 1 14.0926 9.85895 3.3524 0.669596
6913 1 1 16.2241 11.0064 4.48847 0.70224
186 1 1 14.814 10.4081 5.73633 4.05927
1130 1 1 0.44006 10.8371 6.01866 0.572123
2798 1 1 0.368185 10.504 4.24892 1.01758
2151 1 1 16.9816 10.7697 3.43623 1.09023
6719 1 1 18.3265 7.9411 4.28933 1.70767
6563 1 1 17.8963 13.3849 3.28506 1.16618
2313 1 1 18.6625 13.5696 4.35702 0.783617
300 1 1 1.70993 11.5996 3.09922 1.73587
203 1 1 3.46499 10.5507 3.47695 2.52301
2357 1 1 3.3552 11.9601 37.4086 2.05086
7474 1 1 3.21655 11.2487 2.63769 1.05922
163 1 1 5.50689 11.466 3.13811 1.91111
765 1 1 4.68396 10.667 3.28881 0.347065
1163 1 1 3.95303 12.1434 4.66904 0.28993
1912 1 1 7.63802 13.6167 5.48868 1.89263
201 1 1 11.2137 11.6852 3.77376 0.627171
627 1 1 14.6791 12.6358 2.98456 2.87068
7004 1 1 12.852 12.8271 3.79346 3.27916
1438 1 1 12.1351 11.1543 4.12339 1.66026
1175 1 1 12.331 13.3869 4.80063 0.120581
678 1 1 14.2344 11.8024 2.59989 1.12583
1250 1 1 13.0948 10.7546 2.91507 3.40158
1590 1 1 18.4719 14.8839 3.83917 0.234761
622 1 1 0.154875 11.0331 2.92887 1.90078
1184 1 1 16.2808 13.1092 3.08097 1.4001
1079 1 1 1.20446 11.3619 3.91061 2.15903
435 1 1 16.8924 13.1547 3.89768 0.69768
7670 1 1 16.9309 12.1143 1.75255 0.290892
962 1 1 0.223261 12.9623 3.63729 0.786303
878 1 1 0.679936 14.6486 3.10712 2.24173
6531 1 1 1.67594 14.8324 2.86777 0.178212
7847 1 1 1.67836 12.5495 2.13636 0.103712
7212 1 1 0.815401 13.7686 5.19735 1.22642
1895 1 1 2.61291 12.3764 2.98444 0.69321
1561 1 1 4.90873 14.4241 1.65078 0.483591
7085 1 1 8.25749 12.4224 5.01147 2.55185
795 1 1 6.61836 13.8001 4.77574 0.822423
292 1 1 7.70151 12.0491 7.39398 0.0242299
6536 1 1 6.88708 13.8217 3.76109 0.752394
381 1 1 10.0561 14.2899 1.89761 0.437354
342 1 1 9.32884 14.0329 4.35867 1.49195
2224 1 1 11.718 13.3944 2.75051 0.26561
1676 1 1 14.3427 13.399 0.301446 3.25347
1986 1 1 18.0454 15.5771 4.91678 1.25694
7993 1 1 16.1761 12.2074 36.8844 5.52811
1024 1 1 16.1274 14.2504 3.93205 2.88387
1514 1 1 16.4122 13.8365 2.4099 0.20784
7480 1 1 17.3238 14.197 5.67844 2.72302
1116 1 1 2.5277 18.5927 2.34962 1.52865
7863 1 1 2.82275 14.0813 2.91972 0.446036
1146 1 1 0.697885 15.4224 0.6236 1.28592
1486 1 1 3.79878 15.7436 2.80005 1.23098
487 1 1 6.05848 14.5362 2.91155 0.763559
1337 1 1 5.54145 16.3033 3.3184 1.90174
1128 1 1 6.87523 15.3007 4.70808 0.926024
961 1 1 8.71968 15.7455 1.07844 1.47949
7489 1 1 7.83281 15.3483 1.26005 2.38702