ITEM: TIMESTEP
1300
ITEM: NUMBER OF ATOMS
8000
ITEM: BOX BOUNDS pp pp pp
0.0000000000000000e+00 1.8820720577620570e+01
0.0000000000000000e+00 1.8820720577620570e+01
0.0000000000000000e+00 3.7641441155241139e+01
ITEM: ATOMS id mass type x y z v_temp
129 1 1 2.27087 17.8033 36.3917 3.68355
7265 1 1 2.66878 0.730201 36.6147 1.34848
692 1 1 2.11157 0.761749 1.46216 4.23692
7267 1 1 4.66593 2.20485 37.1099 2.49451
7818 1 1 4.46016 18.7395 1.44173 1.00227
7996 1 1 5.73293 17.2887 37.1836 0.183032
7535 1 1 9.40656 2.73605 1.56451 2.08402
1196 1 1 10.1879 0.814882 1.90122 0.549343
1200 1 1 13.3352 17.6824 1.57767 0.2783
726 1 1 11.9191 1.77094 1.15757 1.71581
6814 1 1 17.3972 1.01972 1.18662 0.203084
881 1 1 13.9244 0.113183 1.10528 0.198764
1269 1 1 17.5051 0.910003 36.8999 2.6985
511 1 1 15.8428 2.08862 2.43203 0.198383
576 1 1 17.7556 3.48132 36.7329 2.81874
351 1 1 1.73482 2.01651 37.339 1.46345
7647 1 1 18.5419 0.010643 36.4682 1.28776
6648 1 1 2.45385 4.57538 1.47354 1.23576
774 1 1 2.34191 2.89952 1.76803 0.122129
7226 1 1 3.6344 1.73476 1.02264 0.105529
547 1 1 4.73185 1.30051 1.00484 1.78305
6076 1 1 6.45086 2.3855 1.58602 0.753834
7503 1 1 6.08479 2.87621 0.804892 2.28248
7982 1 1 8.88498 1.1279 4.01202 1.06044
6986 1 1 8.35655 0.182456 0.441448 2.96338
6855 1 1 8.95232 2.32779 37.3505 0.542851
7032 1 1 10.1618 2.02885 1.33704 1.53999
1806 1 1 13.2563 3.79354 1.49485 3.29178
593 1 1 10.4747 2.08907 0.195148 1.39145
1333 1 1 12.0977 2.21604 37.4896 2.32238
7669 1 1 13.092 0.108394 1.75093 0.834177
1315 1 1 15.873 1.53555 0.660514 1.77791
914 1 1 14.2508 2.29964 2.63433 0.931635
7301 1 1 14.988 2.3786 0.23302 0.720922
1473 1 1 16.4598 3.00462 1.73114 0.479391
6868 1 1 16.1681 2.14704 37.4389 3.93619
18 1 1 18.5514 1.74939 36.7866 1.4857
7440 1 1 16.6892 1.74186 1.43519 0.799208
47 1 1 18.2094 4.00209 2.25266 3.08041
447 1 1 0.240804 5.60652 36.8699 1.62811
508 1 1 2.61597 1.74731 1.66087 1.6407
6006 1 1 2.16856 3.0769 37.016 5.80417
7660 1 1 3.6887 3.99897 0.960502 1.03107
7718 1 1 5.12206 3.31004 0.935241 1.89922
1309 1 1 6.97478 4.06805 2.09975 1.66074
7332 1 1 7.67214 3.46284 1.26593 1.91308
7653 1 1 6.53911 3.54568 0.248576 1.09263
6477 1 1 7.68988 2.43528 1.23645 0.717721
7666 1 1 10.321 4.76032 1.73618 1.2256
73 1 1 12.1857 3.47471 37.5485 0.1195
1664 1 1 14.2659 3.53017 0.876827 0.394457
7911 1 1 13.5805 2.66917 0.87127 0.870068
271 1 1 12.4979 5.50131 0.0973278 2.36335
515 1 1 13.2061 1.59863 0.305778 1.11952
966 1 1 15.6605 3.02117 0.892375 0.543325
7841 1 1 18.4649 3.80497 0.463917 4.09598
366 1 1 1.68224 5.94902 1.3264 2.64627
7937 1 1 0.56432 4.09441 1.16861 0.399632
7507 1 1 1.22546 4.9755 1.54618 1.83224
3 1 1 3.86689 5.49304 1.1498 0.411731
7879 1 1 4.69814 4.14472 0.38223 4.13951
429 1 1 5.82514 5.8495 0.265608 1.43213
1850 1 1 6.36565 4.78548 1.35376 3.67788
529 1 1 7.26421 5.54283 1.80783 1.0837
7644 1 1 10.8465 5.581 2.15571 1.41367
6942 1 1 4.83936 5.18245 1.07395 3.69493
7625 1 1 10.7389 6.63486 2.47302 1.80337
6703 1 1 11.5697 6.16488 0.882541 2.31449
7466 1 1 10.3109 3.67061 36.28 5.28278
1329 1 1 13.5997 5.20595 37.1379 0.400297
6872 1 1 14.1769 3.00151 1.89126 2.17928
7432 1 1 17.0732 5.00444 1.70627 3.95759
7086 1 1 0.812434 3.40692 36.261 4.73392
7641 1 1 0.954209 7.81691 1.68527 0.33164
6848 1 1 2.41857 6.76504 0.430421 1.99142
354 1 1 2.72708 7.63498 1.14169 1.60543
1045 1 1 2.61136 5.55434 1.10484 1.19183
945 1 1 6.29989 6.84691 0.247167 0.498572
7663 1 1 6.62563 6.31563 1.3172 1.08735
193 1 1 8.25408 6.99191 1.41593 2.60742
796 1 1 8.34346 7.33214 2.71263 0.802712
543 1 1 9.996 6.85779 3.12087 3.48408
6657 1 1 10.2897 6.22445 36.7769 2.36422
7348 1 1 12.5597 5.79015 1.34664 0.910837
91 1 1 13.6754 6.77923 1.5765 1.27828
276 1 1 15.2695 6.79232 36.761 1.30513
7972 1 1 14.4844 6.67034 2.27209 1.47581
79 1 1 17.7979 8.20516 2.09465 0.676061
7479 1 1 16.9642 6.29914 37.4859 2.29452
72 1 1 0.321665 6.76877 1.29229 1.08184
6762 1 1 0.976636 8.43898 0.422584 1.96286
6705 1 1 1.4691 7.36078 0.883301 0.64174
158 1 1 3.73974 8.51535 37.5822 1.11579
7424 1 1 2.1209 7.76937 37.6554 1.29008
7047 1 1 3.77555 7.57891 1.00387 0.31435
997 1 1 5.55942 7.68559 0.305187 3.28296
925 1 1 5.40126 6.79344 37.3642 1.64558
7803 1 1 4.43293 7.03699 0.425139 2.22223
6235 1 1 7.5318 8.25065 0.0671494 3.50403
6874 1 1 7.2526 9.28284 0.585756 1.64825
7096 1 1 7.65915 7.60116 0.914826 0.0763124
1820 1 1 8.1554 7.31621 37.5324 1.00477
214 1 1 9.76038 9.38437 0.52447 0.612504
6619 1 1 11.1686 7.71438 0.440772 1.39382
181 1 1 11.9671 7.9413 1.17871 2.46363
86 1 1 13.7784 8.40371 36.4968 2.0231
762 1 1 16.3164 7.65418 0.383149 4.28052
617 1 1 13.4972 6.20534 0.655179 1.92614
108 1 1 16.8567 7.94597 1.79443 2.9146
884 1 1 0.490117 8.93968 36.3063 2.29986
736 1 1 0.0959401 9.31122 37.2112 1.74547
146 1 1 1.08902 10.9499 35.7488 0.879914
5397 1 1 1.50337 10.1082 36.9088 1.62325
442 1 1 1.98783 8.99306 0.159599 2.75672
7721 1 1 1.18259 10.0354 0.94534 2.04847
6126 1 1 4.598 10.2795 1.59237 1.49649
538 1 1 4.11387 8.46033 2.80321 0.449552
178 1 1 4.00915 8.63865 0.950876 1.41322
5813 1 1 4.74574 8.92689 37.2565 3.82905
7326 1 1 5.54847 8.68621 0.765985 1.81063
1046 1 1 7.40129 10.0249 1.31526 1.47378
721 1 1 10.344 10.3068 0.906781 0.89564
1224 1 1 8.802 9.09169 0.856964 0.314243
570 1 1 9.1293 7.91402 1.44169 3.16374
6470 1 1 10.5266 9.8619 0.0118284 1.20792
6933 1 1 11.7642 8.85062 0.752039 3.82842
6527 1 1 11.6269 10.9066 37.346 1.28017
6693 1 1 13.9748 10.2962 1.59973 4.05033
349 1 1 14.0604 9.78978 36.6651 1.66973
1349 1 1 15.0669 9.46306 1.43704 2.80012
253 1 1 12.7336 6.99768 0.928757 2.30307
1074 1 1 16.1005 9.1391 0.647278 0.91783
877 1 1 16.6992 9.57026 37.4141 4.64413
712 1 1 16.8372 10.2352 1.75555 1.7741
7913 1 1 16.4379 9.16048 2.088 0.94365
1036 1 1 18.0282 8.9041 0.950783 3.76177
889 1 1 18.7241 10.1716 0.485615 1.82556
1093 1 1 1.77756 10.829 0.514228 3.26995
1280 1 1 3.05709 8.52898 1.65249 2.75019
7011 1 1 4.51845 11.5865 1.788 1.06718
7144 1 1 4.25332 10.5321 36.538 1.41798
1172 1 1 6.36977 10.3004 0.931194 1.46355
7621 1 1 5.66877 9.88297 1.7097 0.71558
6842 1 1 8.14068 10.7953 0.835698 3.87275
7065 1 1 8.07563 9.73577 0.612624 1.27933
10 1 1 6.97669 11.0931 1.39047 0.82712
7740 1 1 9.04731 11.0611 1.08013 0.32361
6750 1 1 11.593 11.7707 1.2176 4.03019
574 1 1 13.2527 10.4973 0.8375 0.694884
7635 1 1 13.4939 10.4898 37.2444 0.509531
423 1 1 15.7661 9.92567 2.165 2.57816
501 1 1 13.8641 11.5136 36.9927 3.35899
683 1 1 14.2366 9.88274 0.0795534 1.53757
669 1 1 16.9939 8.75569 1.0974 1.55903
247 1 1 17.2929 9.79279 0.822111 0.692173
5857 1 1 17.2462 11.0913 0.711067 0.946049
1528 1 1 0.0243217 12.2619 1.17884 1.84322
1350 1 1 1.79752 12.7592 37.433 3.00208
7060 1 1 2.1073 10.3301 1.73663 1.57345
7174 1 1 4.45746 12.4006 0.536397 0.638028
1681 1 1 5.65291 12.6126 1.78097 1.13194
584 1 1 6.07244 11.445 0.932197 1.11899
365 1 1 8.02226 10.9347 2.06172 0.351443
955 1 1 8.65285 12.2792 37.6796 1.15973
38 1 1 10.7915 11.3898 1.00579 0.510315
255 1 1 10.3326 12.7389 2.33225 3.38797
6752 1 1 9.86889 11.8517 0.785427 0.800136
6567 1 1 10.4277 12.101 37.5206 0.545135
286 1 1 10.8527 12.8707 1.06554 1.06202
7545 1 1 12.7729 13.3569 1.15994 1.44267
7634 1 1 13.634 11.8075 0.404244 0.476329
237 1 1 14.6478 11.8782 0.034594 5.31358
7483 1 1 15.3003 10.818 0.251999 2.61552
6599 1 1 15.9997 9.99858 1.24289 0.726819
7089 1 1 16.3157 11.59 1.48466 1.9008
579 1 1 17.4049 13.059 0.232909 0.331778
1234 1 1 18.2206 12.1333 37.5154 1.64519
7555 1 1 1.20662 12.9732 1.00496 0.895146
6788 1 1 4.12054 12.7925 36.8389 1.69241
8000 1 1 3.7778 13.2211 0.799581 1.48966
6232 1 1 3.42976 15.138 0.843417 2.21557
1995 1 1 6.10661 13.7389 1.1656 0.248998
215 1 1 5.35752 14.8218 1.7887 1.1855
815 1 1 5.07808 13.225 1.04294 0.23002
1908 1 1 8.4441 13.5778 0.772626 4.15194
5866 1 1 8.43793 14.2276 1.71323 2.99793
53 1 1 9.41471 14.2303 1.06872 0.851481
6686 1 1 10.7318 14.3076 1.30582 2.23405
7888 1 1 15.5371 13.4723 0.336011 1.38111
7390 1 1 14.7416 14.0098 0.537694 0.961704
234 1 1 16.3087 14.0672 0.762706 0.764086
375 1 1 17.0121 14.3401 1.68947 1.56131
7826 1 1 18.3133 14.2605 1.18609 1.20429
634 1 1 15.7661 11.8116 0.415588 1.90902
7947 1 1 18.0633 14.103 0.191484 2.26997
7968 1 1 0.821349 14.155 37.2978 0.648549
1529 1 1 1.61624 13.8636 1.67431 0.799137
559 1 1 0.941919 15.1128 1.68161 3.24649
704 1 1 5.70879 13.3279 0.157749 1.24741
7854 1 1 4.00624 14.3855 0.580167 1.17768
769 1 1 4.43295 13.6352 1.66807 1.58069
6379 1 1 7.16008 13.1584 1.73949 2.34134
7926 1 1 4.34232 15.575 0.770712 2.82165
504 1 1 6.24335 14.5404 0.436428 1.48584
6600 1 1 5.34303 16.2266 1.06689 1.8741
1150 1 1 9.10141 14.1001 37.5436 0.3838
7457 1 1 9.13622 15.1585 0.469182 1.62576
377 1 1 11.031 14.4619 2.29035 2.46406
746 1 1 16.3099 15.0555 37.6114 1.05822
1042 1 1 16.9745 15.5421 0.802828 0.14136
629 1 1 16.5728 15.5433 1.8117 0.108162
558 1 1 2.19295 14.3578 0.719434 2.06083
7869 1 1 16.5143 14.2738 36.406 0.98953
7951 1 1 18.4011 17.5432 0.504652 0.0924807
7604 1 1 3.35286 0.685361 0.448482 0.265601
1485 1 1 2.73599 17.3478 35.1984 8.02884
1481 1 1 3.97687 16.6998 1.1048 1.11612
775 1 1 4.82219 17.0099 0.50463 2.36447
7569 1 1 7.66545 15.7544 36.9815 2.98655
7206 1 1 7.61146 17.3235 36.9797 3.91328
6914 1 1 6.81812 17.3143 2.43137 1.0276
227 1 1 11.4322 17.2879 2.08073 0.591777
708 1 1 10.6076 15.838 37.5855 0.53223
7550 1 1 10.4205 18.5748 0.311418 0.384586
7341 1 1 11.8902 16.6402 36.1328 0.267479
1110 1 1 12.773 15.3161 37.6024 0.590728
22 1 1 14.8766 17.4423 0.244641 1.08963
356 1 1 12.908 18.5991 0.7616 1.32802
7202 1 1 15.1114 15.7809 1.43709 0.157585
7999 1 1 16.6572 16.5761 1.25093 1.95355
6845 1 1 -0.0139544 18.0268 37.2636 0.639744
6777 1 1 2.57017 18.7997 0.758299 0.245043
194 1 1 1.31535 18.7833 37.588 1.22079
6713 1 1 2.71837 16.5624 0.692949 0.947424
6835 1 1 4.79287 17.8865 37.2261 0.33659
1573 1 1 5.36212 17.6237 1.0011 0.668691
228 1 1 6.74805 16.5078 0.402174 5.77967
3576 1 1 6.84352 18.7877 37.1113 1.55244
1206 1 1 8.65174 16.978 0.0629061 0.423231
1139 1 1 9.52749 0.122014 0.845374 3.79442
2020 1 1 11.8549 17.6738 36.9383 1.18458
1339 1 1 10.6905 0.247318 1.14861 1.14579
338 1 1 11.6332 18.152 1.03059 6.25293
6636 1 1 15.4778 18.5721 0.0686364 0.647785
7478 1 1 17.2202 17.8084 0.77406 0.825127
7261 1 1 18.1429 0.333328 1.63979 4.00573
2367 1 1 0.711819 17.1024 37.4294 0.727965
33 1 1 17.2111 17.598 36.5632 1.25719
1999 1 1 18.2614 1.53135 1.41071 1.31769
1198 1 1 1.40549 18.8757 1.51039 5.19194
643 1 1 2.35037 18.5971 1.91774 0.426651
2347 1 1 4.44363 18.7719 3.45759 2.55403
6152 1 1 4.15321 0.91207 2.12575 0.287371
175 1 1 6.87853 0.754862 1.64712 4.64367
895 1 1 5.7499 0.765296 2.6431 0.839031
633 1 1 6.94494 0.736078 3.61111 0.72206
1446 1 1 6.75774 18.6938 0.955866 0.320855
1416 1 1 7.81292 17.8607 0.478045 1.27711
94 1 1 8.8377 1.37744 1.19206 0.866322
1749 1 1 11.267 18.1433 2.64589 2.04243
824 1 1 8.94704 1.89409 2.07617 1.61173
6079 1 1 10.6378 0.741206 2.97509 0.781338
7745 1 1 11.9108 0.0855471 1.94418 1.04083
383 1 1 14.328 1.01089 1.34746 1.56757
677 1 1 14.8986 2.0912 1.57393 0.635307
608 1 1 18.6759 18.4513 2.79334 0.61501
31 1 1 0.982957 3.14057 37.5725 2.13984
1348 1 1 1.2999 1.26438 0.540446 0.951956
427 1 1 1.12125 3.52461 3.44495 0.150715
155 1 1 3.60003 1.83032 2.1651 1.61564
7903 1 1 1.79565 2.60974 2.52938 2.47968
109 1 1 2.72022 1.84256 2.83033 0.461318
406 1 1 3.10952 3.51785 2.31457 2.44702
936 1 1 3.56998 4.35651 2.12514 0.418632
2126 1 1 7.95168 1.77952 3.76335 1.30531
7539 1 1 10.3365 2.13377 3.59014 1.87029
1993 1 1 11.1635 1.94835 2.42907 0.92376
418 1 1 10.9702 1.22168 1.59303 1.89397
1213 1 1 12.3016 1.08315 2.14676 1.58604
100 1 1 11.547 2.82019 0.545204 2.82611
1308 1 1 12.9138 0.859692 1.13709 1.54232
1007 1 1 15.4849 1.02372 1.536 3.83398
1344 1 1 16.9558 1.97217 2.4688 0.535736
206 1 1 17.5499 2.87853 2.27902 0.231929
7088 1 1 17.5828 2.35813 1.19686 0.344625
7980 1 1 0.385635 1.77261 3.37574 2.19169
7646 1 1 0.983138 4.04947 2.44839 0.781423
6995 1 1 2.09815 5.09331 2.46206 0.0796541
875 1 1 1.62046 3.7937 1.17329 0.558949
1409 1 1 2.96026 5.34892 2.22485 0.840322
879 1 1 2.15566 3.90581 2.75765 2.78574
1237 1 1 5.27237 2.11185 3.07495 0.502641
7251 1 1 2.6726 3.05663 3.16512 1.78043
580 1 1 5.54122 3.95941 1.69951 1.45625
125 1 1 4.52353 3.30933 2.7773 2.69021
623 1 1 8.29944 4.49287 2.42237 0.0853298
656 1 1 5.68185 2.80132 2.40503 0.97711
385 1 1 7.5665 3.24034 2.69092 0.767555
6659 1 1 8.38451 2.76936 2.45763 0.526235
934 1 1 9.93177 2.07317 2.45126 1.09817
3337 1 1 11.0704 4.77196 3.13667 0.760399
7588 1 1 10.3066 3.30768 1.38113 3.60244
505 1 1 13.1283 1.73171 2.16917 1.46996
7719 1 1 14.2331 4.71039 3.29414 4.67712
1377 1 1 14.1242 3.71905 2.59947 0.618002
1422 1 1 15.1659 3.43571 4.6076 1.01319
1183 1 1 15.2904 3.07958 2.04442 0.636518
651 1 1 16.867 4.01038 1.42353 0.508953
7998 1 1 16.5946 5.13729 2.62316 1.44644
314 1 1 18.1632 4.7648 1.48027 0.391196
802 1 1 0.245608 5.32889 1.80233 0.553049
1287 1 1 1.19035 5.41284 3.16736 4.63442
190 1 1 2.99275 6.73098 1.64775 1.67845
2824 1 1 4.70104 4.67598 3.07403 1.64928
1714 1 1 3.64262 6.24975 2.51079 3.26021
7631 1 1 4.71426 5.90041 1.78886 0.598727
1717 1 1 5.53094 5.71684 3.35834 1.13901
1977 1 1 4.33123 5.59063 3.84579 0.163604
661 1 1 5.75035 4.683 2.53133 1.18556
6922 1 1 8.8437 5.62896 2.24943 1.22486
1076 1 1 9.11519 5.25823 0.84789 1.64148
6136 1 1 8.71023 6.38278 3.11974 0.684513
492 1 1 11.8022 6.25656 2.30977 1.23612
1051 1 1 11.5025 5.57876 2.98909 5.33774
582 1 1 9.94682 6.96483 1.47128 2.52785
2221 1 1 13.012 4.32308 2.31935 0.448101
7185 1 1 14.5909 4.52839 1.98407 0.802504
6241 1 1 15.4928 4.23677 1.4549 0.577179
444 1 1 18.5181 4.78954 0.391832 3.19953
6975 1 1 1.83198 8.19932 1.39682 0.413631
1562 1 1 1.01255 6.34152 2.23395 1.80817
230 1 1 0.429958 8.06479 2.51282 1.83691
7659 1 1 2.37697 6.32968 2.4582 0.682555
7738 1 1 4.05919 6.833 1.79948 2.06481
7651 1 1 2.33 6.75348 3.56758 1.16611
7215 1 1 4.81657 8.01766 1.69104 0.611522
1405 1 1 6.85393 5.6286 4.65438 1.18542
2348 1 1 9.17162 4.7538 3.04172 0.252422
1194 1 1 8.69269 8.19733 2.42493 1.0703
140 1 1 12.8623 6.0548 2.40485 0.523737
469 1 1 15.182 5.21804 3.38853 0.830473
1193 1 1 14.0169 5.32321 1.54968 0.720134
1274 1 1 15.7325 6.99818 2.89908 1.85913
2197 1 1 16.4554 5.43086 0.644156 2.02821
223 1 1 14.5404 5.93465 0.740381 1.39074
7358 1 1 17.2636 5.96849 2.81797 2.67894
6675 1 1 0.328591 6.21289 3.57729 2.87135
1596 1 1 18.4119 7.44144 1.88656 1.41717
1917 1 1 1.83921 8.48034 2.98537 0.590127
926 1 1 1.211 9.00706 1.28835 0.74265
7791 1 1 3.04255 8.57498 3.35712 0.357256
7966 1 1 2.12732 9.56142 2.46701 0.62191
5817 1 1 4.39985 5.53707 0.0991511 0.0580513
1002 1 1 2.47443 7.93 2.30761 1.19395
626 1 1 5.35539 8.0875 3.2363 4.48356
615 1 1 5.8866 8.58917 2.21726 2.12044
7643 1 1 7.64681 6.20448 2.56284 1.09297
1427 1 1 5.71861 7.50968 1.87657 0.850338
568 1 1 7.85757 7.82437 1.9268 2.21512
7748 1 1 10.0989 7.80236 2.12441 1.53307
6538 1 1 11.2694 7.17376 3.29304 5.83189
188 1 1 10.4019 8.93254 2.05881 1.28082
1069 1 1 12.1448 10.8911 1.92572 2.7476
285 1 1 13.6869 7.71849 2.99922 0.196562
7021 1 1 12.7252 9.27121 0.573884 0.536291
7983 1 1 15.1674 8.14591 1.07674 0.268514
550 1 1 14.8673 8.92734 0.502297 0.609535
7717 1 1 17.606 6.31959 1.80506 5.15071
1318 1 1 0.211353 9.24398 0.75303 0.565585
6875 1 1 17.3806 9.02786 2.81131 3.3481
7280 1 1 18.531 5.839 2.76303 3.1382
107 1 1 17.7448 7.04325 2.64052 2.81612
2110 1 1 0.529503 9.76669 3.74473 0.208257
481 1 1 3.13468 9.53374 2.14713 3.51627
750 1 1 2.56548 10.0648 0.682008 1.17699
7482 1 1 4.18633 8.72257 3.80636 1.00108
1301 1 1 4.91479 8.891 2.19902 1.27906
6987 1 1 6.59554 9.38503 1.79405 1.971
1547 1 1 6.61998 8.36964 0.569491 2.63904
7335 1 1 7.28949 9.17062 2.45868 1.65692
1001 1 1 7.19929 8.59387 1.54008 0.975532
2177 1 1 8.90872 7.23671 0.662109 4.56973
7002 1 1 8.3048 9.68092 1.61237 0.986407
7943 1 1 9.91278 9.81741 1.96633 1.67725
2244 1 1 10.7132 9.60656 2.7891 2.36535
6497 1 1 11.4636 10.211 3.24748 0.530431
6463 1 1 11.6537 10.0652 1.1037 0.704413
6669 1 1 14.8138 8.84731 2.22844 1.58542
973 1 1 13.0418 9.91814 2.0608 1.86173
7851 1 1 17.5522 8.82284 4.24013 0.295865
790 1 1 15.994 9.82011 3.49912 1.73821
6569 1 1 17.9614 9.91986 1.80426 0.633359
967 1 1 3.61813 10.1502 1.13857 2.07296
863 1 1 1.0173 10.1811 2.97055 1.35394
1790 1 1 6.461 11.9929 1.94106 1.02023
1417 1 1 6.14235 10.4808 2.48841 0.379727
1542 1 1 8.24181 9.96933 3.02191 0.0244859
232 1 1 12.4563 11.2691 0.551097 2.29386
1107 1 1 10.5399 9.07257 1.08316 1.25423
7984 1 1 10.2389 11.521 2.56354 1.24281
7156 1 1 11.5355 11.4562 2.63267 1.13652
653 1 1 13.0647 12.6644 1.93472 1.26456
296 1 1 14.1847 7.54133 1.06945 1.3539
6590 1 1 14.8029 12.0759 1.1748 1.81969
6939 1 1 13.2057 11.1571 1.763 2.87825
84 1 1 15.8764 10.2661 4.55571 0.637748
386 1 1 12.9317 10.7393 2.74528 0.393856
7470 1 1 16.9113 10.0295 4.18522 0.299098
818 1 1 15.12 10.7387 3.65584 0.386973
7800 1 1 17.4173 10.7685 2.50934 2.11954
7845 1 1 1.23906 11.1115 3.3191 1.48743
1360 1 1 0.348702 10.077 1.60289 0.199148
259 1 1 0.200326 11.0623 1.10497 1.01961
7811 1 1 1.17951 12.7128 2.1643 1.43309
340 1 1 2.34281 12.533 0.63524 0.858724
6646 1 1 3.32261 12.612 1.63297 0.609324
7805 1 1 2.73158 11.2606 1.2526 5.2126
773 1 1 2.77656 11.9556 2.07924 4.47074
834 1 1 3.77329 12.7614 2.47434 1.73337
7248 1 1 4.68859 12.5483 2.33499 0.579474
290 1 1 6.35012 12.2479 3.01382 3.82678
7704 1 1 8.96059 10.994 2.61196 0.166616
1165 1 1 7.29553 12.1994 2.50801 1.58101
6946 1 1 9.40237 12.1249 3.02154 0.293138
4198 1 1 11.3022 12.3781 2.37221 0.572875
2814 1 1 12.1201 13.1604 2.60107 1.08629
7444 1 1 14.5897 12.5018 2.18174 0.288165
7867 1 1 14.7549 10.9839 1.20896 2.40218
1971 1 1 18.1806 13.388 1.71025 0.552312
7855 1 1 0.165651 13.5443 1.0537 0.326239
7772 1 1 1.47079 11.259 1.36402 0.902773
245 1 1 1.72445 11.9539 2.56314 0.495214
6650 1 1 2.15988 12.9315 1.59414 1.8702
7056 1 1 3.40668 13.9161 1.6099 0.0401707
7610 1 1 6.85977 13.0458 4.04562 1.54221
452 1 1 6.50728 12.6473 0.964854 0.610903
1144 1 1 7.64837 11.8579 1.2945 3.44429
1448 1 1 8.06924 12.9552 2.44272 2.5254
1210 1 1 7.73482 14.4052 0.909948 2.29655
1178 1 1 8.90661 13.2282 3.19667 0.0476549
6632 1 1 8.13468 13.9915 3.08595 2.088
1848 1 1 10.1466 14.9761 3.39926 0.262097
1103 1 1 10.869 13.4679 2.00685 1.02554
6824 1 1 12.5869 14.3219 2.19713 0.00269509
1187 1 1 14.0574 13.5797 3.46333 0.393422
1143 1 1 16.1859 13.0357 1.99146 2.39065
7853 1 1 14.7518 14.7852 1.46785 0.554905
393 1 1 15.4179 14.132 1.18047 0.647106
7887 1 1 1.12998 13.7519 3.00042 0.919765
1604 1 1 17.5381 13.4547 3.92204 0.912665
757 1 1 1.43119 17.6891 1.47374 0.927552
1509 1 1 1.93822 17.4347 2.68771 2.45309
7957 1 1 2.26293 15.1335 1.90706 0.759546
6243 1 1 3.03969 13.7661 0.603707 2.12786
445 1 1 3.17632 13.621 2.941 1.57642
399 1 1 4.43649 13.2903 3.19863 1.5472
1527 1 1 5.39325 13.9005 2.47885 1.61723
6851 1 1 8.88768 16.3556 0.779399 2.09001
902 1 1 7.69533 14.9024 2.08383 2.21031
829 1 1 9.68333 13.9487 2.61208 0.686283
7040 1 1 9.81661 15.8021 0.852571 0.794663
2661 1 1 10.6621 14.1873 3.89674 2.28375
3108 1 1 11.3696 15.2772 2.91697 0.91764
6723 1 1 12.9813 15.412 0.951296 0.30698
389 1 1 14.1165 15.1063 2.32534 1.4023
2345 1 1 14.519 13.0114 0.715874 3.20138
7548 1 1 15.3301 13.1154 1.27656 0.957672
2287 1 1 13.9049 15.6748 1.50032 1.96273
1439 1 1 14.75 16.4381 1.97877 0.054888
1638 1 1 18.7517 15.0595 1.70887 0.715688
785 1 1 3.36957 17.8161 3.35855 2.05122
328 1 1 0.922957 16.8663 2.00218 3.11403
844 1 1 3.22923 15.8076 1.98163 1.3296
332 1 1 3.42169 16.6659 2.88284 2.90202
6459 1 1 3.99062 14.6879 1.6723 1.29298
7613 1 1 6.57699 17.7808 0.366183 2.01688
728 1 1 6.13138 15.1567 2.4038 0.450669
7856 1 1 7.80706 17.0804 3.07135 4.73856
1432 1 1 6.93949 15.0439 1.31504 0.4013
1582 1 1 8.92432 17.3207 1.75502 1.48979
854 1 1 10.2611 15.4361 2.29346 0.626671
416 1 1 10.5536 16.5015 2.35804 1.95304
343 1 1 10.5682 17.7846 1.32212 1.80349
7149 1 1 11.915 16.8595 3.05069 2.06671
1904 1 1 12.0729 15.9899 3.45115 0.709093
1406 1 1 14.2324 15.5285 3.88853 0.669
40 1 1 14.834 16.7252 1.02541 0.689803
2409 1 1 17.1371 14.9758 2.87543 2.51362
5999 1 1 18.6071 16.3348 1.61254 0.917481
1634 1 1 0.949182 17.9816 3.12799 0.551878
318 1 1 2.38873 17.6957 0.719747 1.17792
686 1 1 1.92131 16.7371 1.65442 1.72093
1729 1 1 3.05605 17.8616 2.13933 0.130249
6866 1 1 5.24446 16.602 2.38312 2.10545
1328 1 1 5.33401 17.7486 3.49092 7.38053
7785 1 1 6.09957 18.5629 1.85138 0.353207
605 1 1 7.92702 16.6719 1.37422 0.0120686
1785 1 1 9.89358 18.1419 2.45293 2.21019
7230 1 1 10.5744 17.0005 4.57029 1.59631
6673 1 1 11.9155 17.8442 3.44419 0.931209
696 1 1 12.2792 17.7706 2.27734 0.336489
841 1 1 10.5796 17.7842 3.56105 2.41189
2270 1 1 14.5939 17.6832 1.57542 1.12276
273 1 1 13.3666 17.7871 0.201831 2.20402
859 1 1 17.1225 17.1988 1.85515 1.832
180 1 1 15.4636 17.3254 1.89398 1.03478
1186 1 1 15.23 18.4522 1.83219 1.17737
7930 1 1 0.237594 0.0733938 1.08071 2.84849
7188 1 1 17.8994 1.62203 2.7102 3.03041
1926 1 1 18.8039 16.2228 2.8648 1.4408
7938 1 1 1.73696 1.64972 2.34586 1.81026
7934 1 1 3.00491 0.792382 2.97395 0.71439
489 1 1 2.04095 18.5217 2.98892 0.718649
3146 1 1 3.20083 18.5199 4.13463 2.27548
1930 1 1 4.3019 1.33339 3.21778 2.61782
1140 1 1 5.03194 18.5875 2.43823 0.741872
7122 1 1 4.71574 18.3847 5.1878 1.52489
1331 1 1 3.65295 0.650035 3.81839 0.895773
6321 1 1 6.03492 0.987215 5.51909 0.54071
1168 1 1 7.90818 0.268246 3.19853 0.11774
497 1 1 7.81867 0.678993 4.27557 3.40138
566 1 1 9.74117 0.332377 2.57728 0.46142
1658 1 1 9.83249 18.402 3.47668 0.370241
700 1 1 11.2742 1.56331 3.4022 0.340142
1708 1 1 9.75335 0.437021 4.36965 4.13789
906 1 1 11.9527 0.337942 2.88526 0.733254
2106 1 1 12.9184 18.1862 3.04834 1.08538
871 1 1 12.9689 0.392763 5.02837 4.05245
990 1 1 14.8356 18.4348 3.49319 2.52662
787 1 1 18.2446 18.7451 4.16581 1.15428
982 1 1 16.0197 2.39122 3.36119 2.212
7950 1 1 13.6267 0.249605 3.53053 1.44042
1223 1 1 16.4281 1.60093 4.03213 6.24559
894 1 1 16.7292 0.162833 4.97201 0.769478
1265 1 1 18.5953 1.03341 3.8 1.65932
915 1 1 1.31632 1.44415 3.4509 1.88736
1279 1 1 3.34969 1.65978 4.06144 0.726933
611 1 1 1.6155 2.56635 3.79494 0.503211
1543 1 1 6.09382 1.44135 1.88555 1.51186
1208 1 1 6.49437 1.96846 3.29251 0.117875
886 1 1 7.6887 2.00075 4.89614 0.298812
96 1 1 8.39666 2.86626 4.93964 0.343978
2103 1 1 8.7904 1.75493 4.91322 0.159242
553 1 1 11.8127 2.95972 3.45433 1.75232
640 1 1 12.8202 1.00553 3.79647 0.422715
409 1 1 14.1515 1.01741 4.58825 1.07476
387 1 1 14.3345 3.03357 3.43098 0.47789
1229 1 1 16.256 2.86571 5.67522 0.184035
7246 1 1 15.6914 0.707044 2.6461 1.54801
7914 1 1 16.1799 3.50258 4.24149 2.97821
816 1 1 0.101238 5.06919 3.25039 0.39273
1338 1 1 18.3571 3.53061 3.63004 0.292504
1805 1 1 1.14017 3.26876 4.49026 1.56919
7284 1 1 2.90231 4.18509 3.64294 1.05168
509 1 1 3.79163 2.34289 3.14567 3.01255
1281 1 1 4.29819 4.73472 4.53508 2.275
7123 1 1 4.37476 3.66461 4.00239 0.0907628
56 1 1 8.35678 2.95468 3.63805 0.892835
585 1 1 8.05899 5.31063 3.70937 1.96742
528 1 1 7.94068 3.62298 4.34641 0.245018
2318 1 1 7.18548 3.86607 3.74247 0.282214
7989 1 1 9.33132 3.0743 3.87798 0.975737
177 1 1 9.68879 3.26445 2.40963 0.594292
7685 1 1 9.21838 3.98095 3.62057 3.00193
1661 1 1 11.3507 3.63682 1.20466 1.24843
1826 1 1 11.4008 4.02599 3.86488 2.53375
7725 1 1 14.3546 5.02234 4.47968 2.08021
7155 1 1 13.0367 2.77676 2.61952 1.59663
1203 1 1 13.3592 3.10775 3.83418 0.717464
1239 1 1 16.0948 3.51745 2.92205 0.131996
7468 1 1 16.9655 4.19876 2.76148 3.53188
148 1 1 17.445 2.8014 3.22656 2.44696
1591 1 1 18.2009 3.23912 1.51776 0.688412
3932 1 1 0.0943055 5.46541 4.86881 2.25561
6396 1 1 1.95784 4.76594 3.489 0.017554
15 1 1 3.36616 5.12557 3.79577 0.369672
62 1 1 5.40307 3.21642 3.83685 0.975468
7532 1 1 6.75495 5.08449 2.51794 4.12738
691 1 1 6.66879 5.43772 3.43605 0.888649
1648 1 1 8.88482 4.82466 4.10014 0.4747
122 1 1 10.0826 4.86296 3.71294 2.79868
2455 1 1 10.7363 4.63534 5.31115 2.53139
1698 1 1 11.9862 6.57516 3.7475 1.07212
7422 1 1 12.5583 5.15202 4.65903 1.58569
6541 1 1 15.4427 5.09563 5.44129 1.43394
2075 1 1 13.1041 4.34564 5.26588 0.00882141
2392 1 1 15.343 6.39909 3.60552 0.480245
581 1 1 15.1619 4.2961 3.95898 1.53221
486 1 1 15.6926 5.25628 1.60704 0.710394
102 1 1 15.2781 6.10117 2.05917 1.58413
235 1 1 17.7143 4.9968 3.00769 3.55922
6533 1 1 1.08213 6.62901 4.34707 2.25813
7456 1 1 1.36808 6.31848 3.42042 0.516951
523 1 1 1.42739 5.86039 4.95053 3.54303
548 1 1 2.33196 5.54091 4.05788 0.582823
1883 1 1 4.38101 6.40397 4.59649 0.280294
6767 1 1 4.40314 7.60417 3.4714 2.00346
7921 1 1 5.92507 5.83693 2.06094 2.17584
1177 1 1 7.43597 7.1099 3.78294 2.33163
7904 1 1 6.69265 6.51227 3.24733 2.90829
455 1 1 9.21857 5.95852 3.89052 1.35429
980 1 1 11.1798 5.25742 4.33926 2.06603
1833 1 1 14.3108 6.45032 3.36734 2.39437
2017 1 1 13.1322 6.39054 3.83069 0.747025
591 1 1 16.5521 6.84856 1.33425 0.290709
1715 1 1 16.7478 6.78856 2.9567 1.07594
928 1 1 16.8406 7.10416 4.2443 0.587238
1637 1 1 18.6926 7.13995 3.23961 1.24266
1399 1 1 18.518 8.49456 3.57806 0.632104
7795 1 1 0.752125 8.97239 3.04975 0.86475
134 1 1 4.04735 7.93937 4.55807 0.308096
1864 1 1 6.97695 7.58846 2.94135 2.16455
1334 1 1 8.03165 7.98433 3.76171 0.418674
7459 1 1 9.63282 8.85641 4.4088 0.473851
7322 1 1 9.00987 7.25475 3.6317 5.89077
1927 1 1 10.8146 5.89277 3.63469 1.55273
5690 1 1 12.4357 7.58147 2.62979 2.37917
277 1 1 11.5315 8.76126 2.14027 0.981051
648 1 1 13.2777 8.35549 4.1371 2.46713
985 1 1 11.49 7.72861 2.09659 1.3962
610 1 1 13.3969 9.29794 4.56739 0.813612
488 1 1 13.7661 7.20584 4.26361 0.630402
5812 1 1 15.5178 7.66095 3.78274 2.42994
1537 1 1 14.9961 7.9702 2.69621 1.63744
960 1 1 16.9979 7.58566 5.25668 3.235
913 1 1 16.4411 7.87837 3.22953 3.07268
114 1 1 1.89272 10.3132 3.54376 0.686227
2239 1 1 2.21795 9.35198 3.86574 1.62194
959 1 1 3.42578 10.6477 3.63007 2.82077
996 1 1 4.12609 9.56567 2.28929 0.133972
1863 1 1 4.34724 10.3109 3.41823 0.247502
667 1 1 2.10545 8.20802 4.41086 2.01201
1415 1 1 6.47007 9.48848 3.01449 0.674243
344 1 1 7.11355 9.76441 3.82498 0.44961
1475 1 1 8.08004 11.1248 3.26148 0.566087
1217 1 1 6.49247 8.47086 3.4568 1.48663
2874 1 1 7.18637 8.68976 4.1345 0.895004
1781 1 1 9.2869 9.13829 2.30063 3.05715
7573 1 1 10.4392 10.4437 3.4833 0.903757
183 1 1 10.6287 8.76022 3.48528 2.05211
7138 1 1 10.5406 11.6431 3.91843 2.748
1906 1 1 12.5994 9.15868 3.21701 0.104564
2320 1 1 14.3073 10.0016 2.60823 0.273392
738 1 1 12.2594 10.0308 3.85896 0.909733
240 1 1 14.6898 8.79554 3.26585 0.596817
1942 1 1 16.8219 9.35659 4.98918 3.6135
6561 1 1 18.206 9.41558 3.64183 3.27544
1113 1 1 0.798389 9.15142 4.83674 2.23041
1870 1 1 18.5894 9.32472 4.58749 0.120741
336 1 1 18.2779 10.667 3.23093 1.86055
1793 1 1 0.743654 10.7598 4.36803 2.04937
1272 1 1 1.02009 11.5994 5.36924 3.19764
1728 1 1 1.91956 11.4426 3.93886 2.73796
369 1 1 5.01681 10.213 2.52401 2.73633
243 1 1 3.97798 10.8839 5.13108 4.51199
2311 1 1 5.0665 9.38983 3.28323 3.21642
2980 1 1 5.6288 11.8386 5.55059 2.45179
970 1 1 4.73356 10.4307 4.47582 2.97366
1211 1 1 7.16509 11.0662 2.55471 0.636768
7538 1 1 8.57187 11.5629 4.0056 1.03931
7798 1 1 6.52666 11.4078 4.84723 1.19636
378 1 1 9.63244 12.2889 4.50033 3.02986
221 1 1 8.87174 10.4238 3.62983 0.163147
6896 1 1 9.19118 10.8738 5.00627 0.476144
1487 1 1 13.9846 11.1048 3.26355 2.3652
1100 1 1 11.4979 11.9519 4.89425 0.611303
1965 1 1 14.5988 11.0439 5.3306 2.00251
1072 1 1 13.6544 10.057 3.52663 1.72973
6913 1 1 16.1695 11.1816 3.78642 0.0790103
186 1 1 15.7885 9.25222 5.00893 2.26819
1130 1 1 16.9471 10.7245 6.14287 2.18957
2798 1 1 18.3449 10.3666 4.36899 1.32935
2151 1 1 16.9772 11.7593 3.0154 1.75577
6719 1 1 18.7203 10.1903 2.45095 1.53128
6563 1 1 18.2955 12.7311 4.08435 1.32616
2313 1 1 18.3852 12.9601 5.21728 1.3545
300 1 1 2.68954 11.5179 3.10076 1.25525
203 1 1 4.2689 11.6777 4.07293 0.883267
2357 1 1 3.53345 11.1809 1.87717 2.37415
7474 1 1 4.09146 11.1423 2.7463 0.563656
163 1 1 5.47511 11.3698 2.42732 2.37576
765 1 1 5.62948 10.3317 3.48634 0.162197
1163 1 1 6.13363 12.2863 4.66369 1.15847
1912 1 1 7.8288 13.4176 4.27882 2.08742
201 1 1 9.68584 11.133 4.18366 0.695951
627 1 1 12.8543 12.6452 4.12738 3.11055
7004 1 1 11.784 12.1611 3.95918 1.02169
1438 1 1 11.957 10.919 3.64781 4.29135
1175 1 1 12.4872 13.6162 4.74002 0.564554
678 1 1 13.4586 11.986 2.62642 1.24092
1250 1 1 14.6649 11.1652 2.20808 2.15121
1590 1 1 17.3202 13.0266 2.81247 1.96238
622 1 1 18.1587 11.9677 2.8284 0.582067
1184 1 1 16.7933 11.8593 4.43441 0.562535
1079 1 1 0.606828 11.5162 2.41675 0.835774
435 1 1 16.7168 13.4553 4.57646 0.459086
7670 1 1 17.0998 12.2786 1.98162 0.703416
962 1 1 0.52026 12.3866 3.20245 1.79943
878 1 1 0.845071 15.0561 3.21088 0.825117
6531 1 1 1.56161 14.7036 2.5601 0.463338
7847 1 1 1.94671 13.3452 2.64147 1.2752
7212 1 1 1.14581 14.5856 4.24735 1.36206
1895 1 1 3.4328 13.1304 4.1295 2.91607
1561 1 1 4.97963 14.4809 3.25252 1.23452
7085 1 1 7.36713 12.4415 5.0821 1.46155
795 1 1 6.0466 14.4348 4.73871 0.385994
292 1 1 7.62537 11.9214 6.06001 1.45981
6536 1 1 7.11245 13.6652 3.05823 2.7503
381 1 1 10.5114 13.5668 3.10799 1.15396
342 1 1 9.86718 12.8583 3.66334 2.32135
2224 1 1 11.4378 13.0631 3.25915 0.743093
1676 1 1 14.6557 13.6709 2.05362 0.827887
1986 1 1 17.2421 14.641 3.94184 3.13957
7993 1 1 16.52 13.1325 0.984191 1.5405
1024 1 1 16.0467 14.0034 3.89285 1.72052
1514 1 1 17.9971 14.4009 2.33012 2.82583
7480 1 1 17.1011 14.3119 5.0918 0.926754
1116 1 1 2.21632 17.6725 4.48991 0.869356
7863 1 1 2.69234 14.4724 2.60208 0.432442
1146 1 1 1.61811 15.8485 2.23213 0.713327
1486 1 1 3.76842 15.0683 2.95928 0.701941
487 1 1 6.68005 14.3374 1.89471 0.614818
1337 1 1 5.38552 15.4851 3.14575 2.7966
1128 1 1 7.38708 14.2916 3.91755 1.87987
961 1 1 8.52001 15.6911 1.40075 1.55262
7489 1 1 7.30513 15.998 2.39226 0.89553
1505 1 1 9.8308 14.8101 4.74908 0.93395
1147 1 1 11.1564 12.8834 4.30773 0.269981