ITEM: TIMESTEP
4600
ITEM: NUMBER OF ATOMS
8000
ITEM: BOX BOUNDS pp pp pp
0.0000000000000000e+00 1.8820720577620570e+01
0.0000000000000000e+00 1.8820720577620570e+01
0.0000000000000000e+00 3.7641441155241139e+01
ITEM: ATOMS id mass type x y z v_temp
7088 1 1 18.3735 17.507 35.811 2.35583
677 1 1 1.0998 0.158919 1.82549 5.57716
6814 1 1 5.12129 0.553603 2.43411 0.56646
2103 1 1 6.32912 17.4077 3.32314 1.19522
1134 1 1 7.85794 1.71181 2.08003 2.3239
6551 1 1 9.35664 1.66595 0.494882 0.149775
1588 1 1 12.3558 4.16811 1.89607 1.82309
6121 1 1 9.76323 17.5142 37.5756 1.51055
94 1 1 11.6923 16.9205 0.712168 1.16983
1044 1 1 11.4886 0.153794 0.456735 0.299591
7796 1 1 11.7578 18.0475 0.919694 0.724113
7301 1 1 14.2159 1.52904 1.60234 0.562023
7423 1 1 15.3442 0.190605 1.98957 4.49112
7960 1 1 16.373 0.846133 4.22085 2.11377
1479 1 1 15.9579 18.2544 36.6518 0.784866
2221 1 1 16.7719 1.77965 0.589558 0.57627
5355 1 1 0.647622 4.67393 2.25694 1.99845
859 1 1 3.08074 0.802789 36.8519 4.2594
776 1 1 2.95145 16.4032 1.17395 6.6071
6494 1 1 5.3999 4.6957 0.638283 0.521546
7412 1 1 3.59272 2.2968 0.731351 2.8612
2824 1 1 3.81633 0.708854 0.382963 3.26567
7604 1 1 7.22243 1.38328 0.184329 0.340162
7653 1 1 3.65378 2.10548 37.1777 0.606992
1266 1 1 6.34505 1.16787 2.79076 2.72078
175 1 1 5.84133 0.684588 1.5559 1.51699
7032 1 1 9.5537 4.14153 36.889 1.18675
437 1 1 8.01068 18.6072 0.509528 1.79751
1563 1 1 12.3167 2.56286 1.60889 1.60244
7431 1 1 12.1999 1.52369 2.24442 1.80127
1806 1 1 12.665 3.16396 37.2649 0.294491
350 1 1 13.3083 2.62697 36.1605 0.530648
828 1 1 14.0376 4.0656 35.9933 0.831044
636 1 1 13.9398 1.55461 2.67299 0.592598
1183 1 1 16.6074 4.14566 0.0907406 1.4293
877 1 1 16.2714 1.11625 1.98856 1.21175
6845 1 1 16.6254 2.51091 1.82591 1.15454
2202 1 1 1.44502 1.89976 0.70486 1.12438
791 1 1 3.07793 2.45545 4.02553 1.16861
6006 1 1 4.9561 1.57395 0.304401 0.390893
314 1 1 2.35051 6.93593 37.1006 0.893357
406 1 1 4.42115 2.9549 36.9371 1.6919
367 1 1 2.85647 0.223227 35.4261 4.62974
6777 1 1 5.44598 3.67272 37.5308 0.164715
324 1 1 4.73764 2.55442 2.01754 0.419842
454 1 1 10.5569 3.25771 36.2575 0.555055
1085 1 1 7.24814 2.37634 1.36987 3.95487
5462 1 1 6.51967 4.08304 1.79327 1.00328
2244 1 1 11.0199 18.0554 0.109994 1.60121
285 1 1 10.3965 2.79571 1.19814 0.734548
7115 1 1 11.137 5.91312 36.1254 2.03862
7155 1 1 13.4506 4.93465 0.0476944 0.784638
430 1 1 14.0398 2.45265 0.822635 2.75044
7392 1 1 15.6731 2.48215 36.204 1.71049
7440 1 1 0.0764204 5.12925 2.93253 3.00262
7660 1 1 2.29387 5.75717 1.4687 0.682249
190 1 1 2.20039 4.48453 36.3942 5.00661
7346 1 1 1.64101 4.96875 1.21321 4.87577
1562 1 1 2.26651 6.56912 0.646592 1.13828
733 1 1 4.4402 4.57729 0.36866 0.0451351
7260 1 1 2.93261 4.83038 37.303 0.360503
7564 1 1 9.7521 4.40505 0.383487 3.87126
7450 1 1 9.78741 5.73007 2.40534 1.04741
973 1 1 11.0216 4.31668 3.97047 2.66707
5741 1 1 10.7795 5.43538 0.477566 4.38465
6949 1 1 13.2496 3.37518 2.30049 0.670152
6997 1 1 14.4224 2.37187 2.24754 1.06698
7544 1 1 17.3157 5.69205 34.7566 1.40917
7273 1 1 18.6618 4.1703 0.495717 2.47318
552 1 1 16.48 4.65071 1.60326 0.362583
137 1 1 18.6324 4.83196 1.65523 3.36022
1020 1 1 1.49109 4.79264 37.4962 1.80098
7594 1 1 17.398 4.74068 1.97948 1.69365
1037 1 1 1.53751 8.26591 1.68138 0.317173
7965 1 1 0.678781 6.49564 0.405983 4.78343
1714 1 1 1.38403 6.48113 37.3863 0.398248
762 1 1 1.66236 8.26588 0.657273 1.41475
135 1 1 5.46699 4.80282 37.3207 0.117889
7703 1 1 5.82962 5.78498 0.119183 1.6296
6441 1 1 9.01328 7.85448 3.21032 1.09939
1296 1 1 9.48343 5.3721 36.8752 1.89262
187 1 1 7.79636 5.66734 1.84694 2.1283
997 1 1 7.90503 6.68223 1.98932 0.0350196
5812 1 1 11.3554 5.71202 1.31844 0.608833
1784 1 1 12.3179 4.60273 0.160621 0.192071
2197 1 1 14.7777 7.93592 2.00034 0.159941
469 1 1 15.0607 7.19886 0.515425 3.01791
6476 1 1 12.5893 6.04459 1.01509 0.321244
7318 1 1 17.4288 5.21536 0.816422 5.11244
6561 1 1 15.9091 5.59584 1.08797 1.01745
7844 1 1 0.0812536 5.72151 37.5423 0.243792
205 1 1 2.3832 8.95464 2.42291 1.49371
7570 1 1 0.657096 7.88521 0.137307 4.39814
357 1 1 3.58097 7.82382 2.06739 2.1529
750 1 1 3.61903 8.56573 2.76853 1.96769
922 1 1 6.57561 8.32957 0.786122 0.271402
174 1 1 5.84665 7.1168 4.0144 0.602124
7738 1 1 7.25958 8.72693 0.206969 4.59562
1681 1 1 9.48521 8.33388 0.0915197 0.867509
1001 1 1 8.99287 8.62904 1.14616 1.29983
7573 1 1 8.94341 7.01339 0.267871 0.322881
6907 1 1 8.83083 7.62354 1.85278 3.09719
7913 1 1 10.4762 8.17651 2.31739 3.0631
7548 1 1 12.4595 7.41143 1.54544 0.1988
79 1 1 15.3431 7.17863 37.1556 2.53379
7411 1 1 13.7921 6.58421 36.2251 0.349327
669 1 1 13.2952 6.0214 3.13503 3.04798
6959 1 1 15.4512 8.77635 37.0144 0.949957
7424 1 1 17.1979 7.77262 36.3818 1.98199
1401 1 1 17.1664 6.24668 0.306658 0.736422
875 1 1 16.2283 6.53187 37.4942 0.628675
6828 1 1 0.233424 6.80283 1.46108 0.711055
1596 1 1 1.20446 8.93388 3.01072 0.516792
6343 1 1 2.21453 8.36446 35.883 2.27141
6767 1 1 3.19717 9.03122 1.81147 0.254839
7846 1 1 2.29248 11.0614 36.3769 0.0765584
86 1 1 4.61751 9.11723 36.4298 4.27737
7144 1 1 4.65183 6.86508 0.212042 1.2689
7513 1 1 5.18362 7.68747 1.25898 0.617184
6380 1 1 7.7336 9.72438 37.279 1.33108
6235 1 1 7.99575 8.62228 3.48072 0.964316
7002 1 1 8.08881 9.20711 36.214 1.34768
7643 1 1 8.4791 10.6582 0.468223 4.27921
7019 1 1 9.89099 9.29181 1.06863 0.755295
7943 1 1 10.4173 7.11373 0.743933 3.62985
543 1 1 11.5172 6.08537 0.291699 4.95162
5838 1 1 15.1824 10.8498 37.3448 0.760989
1120 1 1 13.4825 9.15301 0.675364 1.534
600 1 1 16.1709 8.28062 35.9084 1.48033
2072 1 1 17.6521 10.0429 1.00563 0.256238
5857 1 1 17.2956 7.33537 0.525225 2.03101
736 1 1 18.0067 7.84547 37.0871 0.602059
7397 1 1 0.934853 10.1302 0.388827 1.19861
7800 1 1 17.9355 6.34359 37.2147 1.8018
7581 1 1 0.373895 8.614 0.876918 4.05837
6599 1 1 0.541238 9.88137 2.76439 3.01543
7567 1 1 1.66362 12.7838 37.5152 1.30294
439 1 1 4.88716 10.2259 2.7871 1.89372
1172 1 1 5.77657 11.7448 0.0452601 1.77089
191 1 1 5.36343 11.6511 0.956591 1.03192
7065 1 1 7.4314 10.4607 0.403988 1.4145
236 1 1 5.29686 9.61264 34.9744 0.954719
6933 1 1 5.52833 9.9929 36.5274 2.62801
238 1 1 7.10888 11.4624 1.7352 2.87317
574 1 1 8.86945 9.821 37.3576 0.338883
6631 1 1 9.8816 12.1729 1.02373 1.51107
7949 1 1 7.86565 10.9127 37.1573 0.518115
3406 1 1 9.59784 10.2883 0.126026 2.91426
7834 1 1 13.7174 12.8465 1.1335 0.486861
1584 1 1 12.2387 10.3165 37.2579 1.0742
932 1 1 10.8244 9.62219 0.718881 0.271272
627 1 1 16.3701 9.12503 37.3644 1.37155
1438 1 1 18.1365 8.19458 1.01741 4.81486
6752 1 1 17.3639 8.85887 0.41426 0.200416
991 1 1 1.85336 12.2627 0.681438 0.0799376
7555 1 1 18.6925 9.66059 1.76749 1.4033
1793 1 1 17.8431 14.1295 37.2596 2.61385
962 1 1 2.89544 12.2595 1.65513 0.111767
7060 1 1 2.19527 10.4647 2.53994 5.40301
340 1 1 6.96394 12.5209 37.5969 0.661802
662 1 1 4.1246 12.6606 1.51775 1.41866
704 1 1 6.35011 15.225 1.03894 7.16872
7351 1 1 8.04887 12.7151 0.652731 2.78301
2234 1 1 9.02694 12.9314 35.6724 1.17772
6693 1 1 10.2424 13.5009 0.485942 1.83127
7749 1 1 8.76701 11.7231 0.493262 3.56786
2320 1 1 8.98465 12.6481 1.04621 1.57177
6723 1 1 13.0482 10.6195 0.4986 3.4222
7497 1 1 14.1987 10.9058 37.0925 2.04987
1997 1 1 0.030286 12.2347 0.256769 1.17432
818 1 1 17.7562 11.3535 2.4228 0.396804
1399 1 1 18.205 9.29053 0.221362 1.96158
924 1 1 17.5699 15.9806 1.19754 1.22254
6411 1 1 18.463 15.3163 1.36508 2.35916
6464 1 1 1.40468 13.6009 0.511226 1.35504
7248 1 1 3.28675 14.1836 1.06106 1.15762
7404 1 1 3.20033 14.7288 3.53062 0.631221
7836 1 1 2.83492 13.2218 0.740465 2.59688
7457 1 1 5.45873 13.2712 37.426 0.730522
7174 1 1 5.7939 15.9111 0.473416 1.50964
163 1 1 7.62737 14.4675 37.4816 0.986711
970 1 1 6.83219 15.8202 0.182275 2.67232
678 1 1 10.7462 14.1067 37.141 1.57006
64 1 1 8.94325 14.7336 0.995002 4.48162
6399 1 1 11.3843 14.73 1.32849 1.74334
386 1 1 9.92396 13.7183 36.8888 0.815155
6873 1 1 11.615 13.5585 1.11858 0.936822
830 1 1 11.1227 12.3614 1.82962 2.60539
2106 1 1 12.7582 14.4218 0.64493 2.31393
375 1 1 14.4641 12.7683 37.3597 0.594402
209 1 1 14.4346 12.4431 34.2878 1.27733
5900 1 1 13.1998 13.857 1.35489 2.65556
1749 1 1 14.6987 14.3105 1.18074 5.56041
711 1 1 16.6483 13.2051 0.3031 1.98157
7138 1 1 14.8208 12.766 35.2754 2.42117
346 1 1 0.899537 11.853 1.18862 0.112332
918 1 1 18.4391 13.5027 1.19335 1.34214
1136 1 1 0.628174 16.2166 36.7888 1.6087
6637 1 1 1.26282 15.7976 1.14859 4.40851
7957 1 1 4.84714 12.6175 2.19701 1.94464
642 1 1 5.35704 16.9804 0.287207 2.69168
639 1 1 4.51134 14.272 2.06011 4.65919
569 1 1 6.36114 14.0476 0.155841 1.46159
6673 1 1 8.64723 15.0468 36.4651 1.21008
1729 1 1 7.76041 14.563 2.06324 0.0485254
504 1 1 6.61617 15.2415 2.49004 1.3826
7736 1 1 10.7251 13.4923 1.88039 0.719421
239 1 1 11.6131 12.3888 0.947642 1.16711
472 1 1 13.0851 15.3339 2.48888 1.47467
2373 1 1 13.0542 12.4144 0.181715 0.16828
1186 1 1 13.6205 17.9191 37.0732 1.36258
7011 1 1 17.3662 17.1248 0.887937 1.49829
7338 1 1 15.5159 16.2956 0.734998 3.45737
296 1 1 16.4396 16.2732 0.280825 0.896359
7977 1 1 0.850312 17.7229 36.7042 2.1623
7863 1 1 0.998652 17.2654 2.17802 0.932696
668 1 1 0.6053 16.1051 1.78469 0.330259
1634 1 1 1.47544 18.0225 1.67671 1.68669
7097 1 1 1.6924 16.5329 36.8457 1.12234
332 1 1 4.56633 15.9353 1.05505 0.887457
7300 1 1 4.13099 17.8769 37.5351 0.341966
7297 1 1 7.72912 15.3526 0.756681 0.120437
287 1 1 6.25955 16.9437 1.03757 1.0678
414 1 1 8.2083 16.9976 36.2878 0.823467
5509 1 1 9.81338 17.4646 36.0293 1.08184
1196 1 1 10.6202 15.9877 35.2521 0.976502
6228 1 1 10.892 17.2898 36.406 0.740508
7568 1 1 14.5866 18.014 36.4336 0.745225
809 1 1 12.961 16.5234 0.335009 2.01266
653 1 1 12.5482 17.5699 0.600701 0.201027
6982 1 1 14.8091 17.5308 37.5133 1.76102
2506 1 1 16.3258 18.5065 0.888381 1.68794
579 1 1 18.3165 15.2293 0.344416 2.34117
273 1 1 14.7277 15.3114 1.33497 2.73107
1216 1 1 17.8033 16.2324 2.47429 2.39126
328 1 1 1.24722 17.194 37.486 0.631209
647 1 1 2.18311 0.260376 2.19849 0.731934
1469 1 1 3.88373 14.9556 1.78686 0.231381
829 1 1 2.71726 0.4161 0.708019 0.284035
1573 1 1 6.46966 2.14003 0.628172 0.278754
758 1 1 3.83038 17.7228 1.66755 5.1729
6079 1 1 6.25512 18.1876 1.2677 3.0428
7613 1 1 6.22097 16.7994 2.46854 0.765364
6855 1 1 6.81576 1.14398 1.733 3.77302
895 1 1 6.76181 18.0893 0.255154 2.39142
7452 1 1 10.4867 17.4399 0.873673 2.39542
7753 1 1 9.05699 18.7335 1.69269 2.68812
281 1 1 13.7426 18.3896 2.24556 1.60193
500 1 1 12.8768 18.7515 1.66319 0.60419
1413 1 1 14.1625 18.3344 0.538115 1.43086
7529 1 1 18.2894 0.780451 2.09052 3.94894
1999 1 1 17.6959 15.7941 36.1826 2.72012
1713 1 1 2.19517 17.7795 2.47234 0.0564896
643 1 1 3.1778 0.639256 1.71609 1.26934
1509 1 1 1.92652 17.9949 0.708574 0.218683
2026 1 1 7.22242 15.6708 1.64236 0.396592
1365 1 1 2.00732 2.26574 1.63294 1.65993
104 1 1 3.54645 1.92263 2.66976 1.83549
1750 1 1 6.19365 3.9425 2.6973 1.91626
1348 1 1 3.51077 3.005 3.16797 5.91765
6581 1 1 7.73324 1.11021 1.00063 0.828337
6040 1 1 8.90106 2.39549 2.32087 0.433911
1140 1 1 13.1497 0.75239 2.387 2.42813
7028 1 1 12.0453 2.42299 3.07619 2.42189
7340 1 1 13.3587 18.4834 3.47932 0.0709445
7185 1 1 14.6619 18.2208 1.53795 0.378387
1339 1 1 15.7628 18.474 2.80914 1.10405
1973 1 1 16.67 18.0984 1.80726 0.536629
1041 1 1 14.888 0.283023 37.1679 0.489768
1511 1 1 17.1318 1.57383 2.27872 3.58615
1607 1 1 0.860457 2.80905 2.17869 1.49382
3242 1 1 0.528819 1.31672 4.28417 1.50533
508 1 1 17.531 1.37273 37.6291 0.12568
7679 1 1 18.7749 18.3758 1.13816 1.70545
1198 1 1 2.24546 0.813158 3.59555 1.99698
7718 1 1 0.762398 3.18418 3.97498 2.97033
7773 1 1 3.19902 2.73188 1.66227 1.00223
547 1 1 5.70292 2.03991 1.92957 1.48784
7751 1 1 7.75234 0.433371 2.45108 5.26875
6866 1 1 6.80542 3.85939 3.67115 1.1102
108 1 1 8.92179 2.07682 3.95918 1.88527
6363 1 1 8.53202 3.19335 1.75643 0.975531
1661 1 1 11.218 1.07892 1.99286 2.68003
6659 1 1 12.0723 3.51077 3.52328 1.14903
6241 1 1 9.84059 4.81674 3.43435 1.46159
1007 1 1 12.4985 0.75139 1.10296 1.65297
3932 1 1 15.4866 4.78481 2.07723 0.21959
1928 1 1 16.7594 0.711835 3.13487 2.27158
3225 1 1 13.758 0.780094 3.49195 1.0032
1591 1 1 15.7675 3.05298 3.69344 2.34336
1672 1 1 0.594915 0.483243 0.876048 1.44301
31 1 1 2.06747 3.42237 1.70043 1.38042
2558 1 1 0.030183 4.24572 4.13359 0.672946
1045 1 1 2.58077 3.46373 0.0829806 0.476196
6026 1 1 3.28667 4.6906 4.60961 2.27088
7785 1 1 3.65829 4.05353 3.1323 3.01803
6083 1 1 6.05935 3.22658 0.691708 0.319899
6605 1 1 4.88372 2.02533 3.0294 0.728051
7625 1 1 7.47684 4.52873 3.13924 0.759912
593 1 1 7.77703 2.88085 3.08492 0.335376
1381 1 1 9.54111 2.75695 0.0166901 1.16038
354 1 1 9.42544 3.37902 1.04867 1.67752
7094 1 1 11.9474 6.07468 2.89879 2.60691
7719 1 1 9.02749 1.41722 1.44676 1.09521
726 1 1 13.4553 2.30745 3.41813 0.498343
1270 1 1 16.4088 2.15229 2.75175 1.96555
3071 1 1 15.6829 3.61632 2.17986 0.822872
874 1 1 0.82746 5.93359 2.86058 0.920424
7697 1 1 1.11658 3.60744 2.8034 2.95785
6423 1 1 18.4102 3.82636 1.92257 3.23958
982 1 1 1.61705 4.96567 2.79369 1.79489
602 1 1 3.07339 6.77399 2.11038 0.403512
1310 1 1 2.92524 5.57411 2.47645 0.330117
1717 1 1 2.45355 4.30284 0.975007 0.758652
1279 1 1 4.8081 2.76225 0.877153 1.09487
7879 1 1 3.37594 5.54567 3.46627 1.62655
7612 1 1 6.04666 4.69044 4.05997 2.10502
1273 1 1 5.78279 5.0041 2.68455 2.57539
6424 1 1 5.41145 4.16387 1.50712 0.0909591
1237 1 1 10.3504 4.22172 1.29546 0.460588
604 1 1 10.3725 4.2165 2.78419 1.9635
7466 1 1 12.7478 4.28405 3.38064 1.88887
742 1 1 15.4404 6.96588 2.90828 0.813138
7468 1 1 16.4903 3.56985 1.46547 0.584982
126 1 1 15.8228 3.05443 0.83439 2.62404
1539 1 1 15.0685 4.73178 0.895414 0.725583
1648 1 1 15.4976 5.60328 2.80156 1.57556
7633 1 1 17.2461 5.95534 3.91818 0.744429
6640 1 1 18.757 5.30892 4.0042 0.440872
1715 1 1 0.961574 6.01318 1.44364 2.29426
966 1 1 0.954198 7.87167 2.78789 2.66011
7944 1 1 2.18032 7.52765 1.58289 0.792363
6987 1 1 3.42219 6.32782 0.979273 0.42119
2559 1 1 4.67066 8.42001 3.87416 2.08046
6815 1 1 3.32989 6.41967 37.3514 0.655563
615 1 1 4.16865 7.03607 2.17898 3.01086
2608 1 1 6.63505 6.04183 2.58241 2.43562
7472 1 1 6.79761 4.97379 2.36409 4.23146
7482 1 1 10.8457 5.4304 3.22772 1.11993
1224 1 1 12.5044 6.56722 3.81803 2.04637
1790 1 1 13.3499 5.12209 3.6529 0.712238
277 1 1 9.08746 4.40879 2.4504 2.33198
6497 1 1 7.67415 7.87748 1.56594 1.71954
6044 1 1 14.4353 4.28673 2.47657 0.984599
1537 1 1 14.4475 6.28719 2.97752 1.04015
486 1 1 10.2286 6.17931 1.16295 2.35787
374 1 1 14.8303 3.68946 1.65863 2.21916
1377 1 1 14.3446 6.219 1.71465 0.142896
223 1 1 13.3707 6.73443 1.71825 1.4476
651 1 1 15.2858 6.79472 1.65879 0.285281
235 1 1 16.5049 6.43271 2.13674 1.21866
573 1 1 18.4534 7.67624 2.84868 0.552473
7358 1 1 2.16629 7.90177 2.77914 0.611371
5817 1 1 3.64137 9.42617 3.66197 0.434018
158 1 1 6.4052 8.85339 3.91264 1.41102
842 1 1 4.6894 7.17554 4.14164 1.72643
1751 1 1 6.80437 7.4114 2.2033 1.84962
6253 1 1 9.63104 7.07376 3.21909 0.698083
8000 1 1 6.2841 3.03207 2.04189 2.94544
1069 1 1 7.25403 9.64243 1.23289 0.648522
1217 1 1 8.35971 9.64901 1.20334 0.899181
2054 1 1 11.4656 8.67178 2.08166 1.03604
7644 1 1 9.02915 5.29892 2.96468 3.65804
21 1 1 10.7299 6.38977 2.7414 2.19914
675 1 1 13.5307 6.6682 4.05479 0.582958
1193 1 1 15.7452 8.12487 1.46984 0.952155
498 1 1 14.7107 8.80644 2.90943 1.80747
140 1 1 14.414 8.73742 1.14334 1.14706
550 1 1 16.5224 8.47457 0.957586 3.92921
2587 1 1 17.1441 9.41536 36.662 0.742922
622 1 1 15.9342 8.04402 2.59617 0.791118
645 1 1 18.7255 7.35011 0.459187 0.609298
6675 1 1 17.6727 7.15536 1.85737 1.4231
7966 1 1 18.3315 9.74809 3.27215 0.195033
1290 1 1 3.52145 10.602 1.94182 0.737542
7803 1 1 4.1113 8.66663 1.80968 1.47982
7731 1 1 5.39145 8.87725 2.28851 2.25203
7841 1 1 3.83898 11.6161 1.49081 1.36508
6578 1 1 6.31157 9.56904 2.11921 0.766785
1264 1 1 8.55606 8.95581 37.5747 0.473866
6665 1 1 4.21147 9.79791 2.09867 1.00965
7721 1 1 7.97768 9.65732 2.25648 1.0985
568 1 1 10.1476 9.37178 2.77552 0.338905
610 1 1 8.15658 7.91625 4.45239 6.14689
955 1 1 11.9207 8.53352 3.81758 5.09104
738 1 1 13.6077 9.85201 3.41395 1.36228
6686 1 1 14.0735 9.67604 37.294 0.531684
7634 1 1 11.0174 10.7204 3.68817 1.57174
7795 1 1 18.0313 11.0054 37.274 2.36839
38 1 1 16.7395 9.62462 2.23103 2.55699
423 1 1 16.8618 8.65172 2.61256 0.392426
7432 1 1 15.5924 9.37274 2.43962 0.969741
1360 1 1 0.156651 8.77177 2.89402 0.306283
3472 1 1 18.6441 11.6483 3.0108 4.73796
1677 1 1 0.184897 8.17353 2.00868 2.68283
663 1 1 17.583 9.31799 1.7302 1.2831
7851 1 1 2.31449 13.3293 2.56371 1.63542
2638 1 1 1.67397 12.0814 3.69963 0.730106
1917 1 1 3.37931 12.6758 5.06787 1.10356
1318 1 1 3.46958 13.6088 3.15539 0.570106
452 1 1 4.31963 11.4127 4.37456 2.85903
2357 1 1 6.14562 6.57355 0.802859 0.394371
1863 1 1 7.37557 13.4216 0.119345 2.66313
630 1 1 7.92203 11.8892 1.3762 1.6953
1968 1 1 8.02137 10.8296 3.04919 2.61444
1504 1 1 12.3446 8.84853 2.60116 0.991941
2150 1 1 12.967 7.13553 2.73053 0.725312
708 1 1 16.605 10.1822 1.1857 0.704524
201 1 1 13.2367 11.0577 2.62049 0.390681
969 1 1 16.97 10.7982 2.85808 2.3136
1143 1 1 17.9633 11.6053 0.435218 2.05993
7128 1 1 1.50466 13.0939 4.38516 0.735343
300 1 1 1.91912 10.6132 0.551434 2.37593
7729 1 1 0.190403 14.6843 2.74407 3.10934
1727 1 1 5.17096 13.2156 3.21784 1.97152
133 1 1 4.80794 11.6272 2.1283 2.17062
1528 1 1 7.47033 12.0007 2.71273 1.24037
945 1 1 6.28528 12.2099 1.8004 0.87084
1210 1 1 6.78821 10.4954 1.49053 2.25977
6584 1 1 8.51104 12.3364 3.80389 1.95137
342 1 1 9.30963 13.6345 0.854726 2.96993
1385 1 1 11.6369 10.6484 1.80072 0.943464
433 1 1 11.6391 11.1701 0.489833 0.89233
6939 1 1 10.7916 11.532 1.21805 0.504985
778 1 1 9.98285 10.957 1.87807 3.06673
6567 1 1 14.4856 12.151 4.01905 0.964988
7893 1 1 13.1256 12.098 2.21755 2.28414
596 1 1 15.5442 12.1001 3.27264 1.27704
1189 1 1 16.9223 12.4387 1.01762 0.364749
7089 1 1 16.3074 13.1492 3.13612 0.920691
1836 1 1 17.1784 11.1003 1.67792 0.799706
1280 1 1 18.5643 10.6498 2.50945 3.4214
259 1 1 0.978072 13.2394 1.88875 0.0171098
7047 1 1 2.34968 13.8345 37.4774 1.15336
234 1 1 3.37134 13.335 2.1979 0.905507
1448 1 1 18.3611 13.5761 2.42233 1.95562
7961 1 1 6.25973 13.494 1.01906 0.112514
6379 1 1 5.89454 14.4692 2.13599 3.37041
299 1 1 5.21258 13.9026 1.0295 3.53066
481 1 1 6.29725 13.999 3.49734 1.31846
7678 1 1 8.04019 12.9821 2.09757 0.683028
7035 1 1 9.12536 13.7074 3.86393 1.35881
769 1 1 11.1081 13.1939 4.3668 0.817006
7266 1 1 11.0604 10 2.77682 2.95789
7856 1 1 12.6784 12.7375 1.39108 0.656063
338 1 1 13.2918 14.8839 1.63666 2.21676
1617 1 1 13.4623 11.407 1.24919 2.56042
1017 1 1 15.9026 12.3391 2.06709 1.07977
629 1 1 15.5925 15.3232 2.20275 1.93667
7999 1 1 17.4936 13.049 4.01676 1.40317
255 1 1 17.048 13.7035 1.10922 1.25525
2974 1 1 16.6823 14.7777 1.80359 4.98801
6833 1 1 17.7138 13.1266 1.76295 0.322197
1042 1 1 0.225727 15.8737 0.126098 1.14281
7772 1 1 1.3331 15.313 3.08964 0.504985
1340 1 1 1.77239 16.9848 3.37657 1.04295
6459 1 1 18.5437 17.764 2.68698 0.575635
1676 1 1 1.64028 15.2695 2.02412 1.07485
4804 1 1 1.12275 14.235 2.26558 0.499269
1651 1 1 5.31484 14.6824 3.09465 0.25356
7405 1 1 8.92518 15.0844 2.23043 1.74504
1416 1 1 9.15 15.5665 37.5547 1.10766
6321 1 1 9.61662 16.9214 2.14253 0.509662
815 1 1 7.44534 14.7364 3.27707 1.51818
2347 1 1 11.9652 12.5651 2.50115 0.949911
2046 1 1 12.059 13.7164 2.419 1.03391
7950 1 1 14.1335 16.0012 3.98164 1.30102
1077 1 1 13.0865 15.4179 3.72278 0.935649
89 1 1 10.7682 16.2549 0.908356 0.24668
7444 1 1 13.6481 13.6493 4.50201 2.4856
1269 1 1 16.1897 17.3093 1.50897 5.60232
1110 1 1 13.3474 13.411 3.06737 0.640994
336 1 1 14.5177 15.3257 2.53805 0.461567
1614 1 1 13.8697 14.2045 2.24571 1.86351
1170 1 1 15.6826 13.7302 0.663979 6.8382
1367 1 1 16.2994 15.8483 1.31494 2.08654
1984 1 1 18.6926 15.79 2.70343 7.52892
1652 1 1 18.8107 16.9533 3.65977 1.98096
5605 1 1 1.40483 16.0325 4.74384 4.90776
157 1 1 2.56392 15.1215 4.50734 1.39847
549 1 1 18.5703 17.0033 1.56533 1.6419
1128 1 1 3.82535 14.0909 4.06346 1.96359
3499 1 1 3.04023 18.0308 36.7204 2.25426
6280 1 1 5.01673 14.9203 1.14839 1.12676
687 1 1 8.77362 14.1933 2.5597 1.48825
7303 1 1 6.16454 16.8391 4.61979 0.304204
6688 1 1 6.96414 16.9731 1.81977 1.78456
898 1 1 10.3102 14.5532 2.8081 1.04163
1453 1 1 9.39597 16.763 36.7842 3.28056
6582 1 1 10.8216 17.4225 2.31512 0.550717
343 1 1 14.4683 16.8313 0.890926 0.572289
990 1 1 14.1853 16.2592 3.03033 1.12894
1139 1 1 13.6156 15.8277 1.45449 0.669118
1604 1 1 15.9778 14.5267 4.14521 0.301634
1070 1 1 15.2831 15.4 3.22791 0.534722
7826 1 1 18.0633 0.617113 0.417145 3.59288
7847 1 1 17.247 16.798 1.88519 1.65357
7951 1 1 4.48367 0.991723 3.30674 2.19716
18 1 1 17.6873 18.2296 1.97426 2.35262
7454 1 1 2.39886 16.0797 2.09833 1.47508
531 1 1 4.75209 17.8535 2.45173 1.02677
1147 1 1 5.84772 18.6464 3.17485 4.58355
1466 1 1 8.36906 17.99 3.58587 1.22642
490 1 1 7.12832 2.45242 2.40737 0.713071
32 1 1 8.16623 17.6087 1.55717 1.23497
62 1 1 10.3267 15.5958 3.10607 0.377264
961 1 1 11.0636 18.1036 1.70441 0.349008
7821 1 1 8.73126 17.9886 4.55027 1.02489
55 1 1 12.7273 16.3991 3.43809 1.64533
1616 1 1 10.8139 17.7792 3.74974 1.352
505 1 1 10.6997 17.0217 37.4188 1.24382
2348 1 1 14.5188 16.2959 1.91654 3.18212
409 1 1 13.6467 0.591748 0.309704 3.54152
6824 1 1 16.3136 18.0759 5.52919 3.19467
670 1 1 17.2029 18.3858 2.81487 2.15482
6430 1 1 18.1634 18.2876 36.9936 1.23309
7434 1 1 17.5934 2.24795 4.34105 0.856104
910 1 1 18.4634 3.21839 4.10163 1.9138
7947 1 1 0.996344 1.61458 3.35842 0.64917
7451 1 1 17.9682 1.09954 3.15301 2.03769
1902 1 1 2.0358 2.04255 3.31446 0.266396
2365 1 1 6.54806 18.7267 2.06995 0.417219
656 1 1 5.33789 1.58486 3.84061 0.859367
902 1 1 5.26683 2.11315 4.89677 0.888241
7818 1 1 11.3914 18.4464 4.79986 0.605701
1781 1 1 9.63883 18.2207 2.78602 0.497813
676 1 1 8.92195 14.8837 3.47643 1.34876
2204 1 1 12.1777 0.52056 2.06098 0.582138
2208 1 1 11.5404 0.0727845 5.86137 1.09147
164 1 1 11.4753 1.79134 3.80101 2.44306
147 1 1 11.8285 17.3163 3.28841 0.744196
1473 1 1 14.6045 17.1751 2.67394 2.84811
7669 1 1 14.4179 0.570287 2.20464 0.80395
807 1 1 15.7635 0.267781 4.86155 3.25175
7830 1 1 16.1309 0.701279 0.958801 1.38458
881 1 1 17.031 0.218024 5.03317 1.60882
2134 1 1 18.7301 0.322273 4.2937 2.98881
1909 1 1 1.50773 1.00525 5.03001 1.72163
2066 1 1 18.6448 1.94152 3.9381 2.07351
7188 1 1 2.45199 3.8563 4.56523 1.69659
1654 1 1 1.781 1.45109 2.40357 1.93641
686 1 1 1.9609 4.78317 4.36062 2.77827
96 1 1 4.22053 2.90852 4.96822 0.222074
1322 1 1 3.69324 1.56025 1.60697 0.744485
148 1 1 2.19432 2.9473 6.14317 1.53579
729 1 1 2.72745 3.62802 2.57322 0.364391
6922 1 1 9.55714 1.24874 4.03072 0.458656
1543 1 1 7.62468 0.688877 3.46858 2.2096
7934 1 1 5.80094 2.6388 3.25834 1.29939
544 1 1 9.35929 0.543022 0.850933 1.22771
6942 1 1 7.55287 0.0451418 4.69838 3.22098
61 1 1 8.41903 1.43228 3.3061 4.27683
1291 1 1 11.3499 0.773473 4.93082 0.123449
822 1 1 13.5279 17.3041 3.82278 2.76487
479 1 1 12.1088 4.73204 4.93941 3.61943
1239 1 1 13.6243 2.76805 4.74246 1.44571
149 1 1 17.8917 2.8539 3.43897 0.472004
772 1 1 17.5922 1.08415 4.16793 1.11062
1826 1 1 13.207 3.1117 5.69163 5.91824
519 1 1 16.403 1.95864 3.8717 6.85184
914 1 1 16.2877 5.02508 4.01682 0.516267
1354 1 1 17.1123 3.05493 2.67427 4.98161
965 1 1 17.4185 2.53568 5.33705 0.232755
7887 1 1 0.859271 3.96895 1.05872 3.53535
845 1 1 0.16544 3.86353 5.23761 1.15216
1738 1 1 1.92348 2.8721 5.01233 0.600165
109 1 1 1.49048 8.26344 3.76249 0.491939
692 1 1 4.88922 4.77959 5.68882 2.7886
7366 1 1 3.35895 3.49895 4.41972 3.91074
7215 1 1 5.25985 3.24855 2.58129 1.98224
7861 1 1 6.50184 1.27277 4.47789 0.653956
125 1 1 8.04174 3.73637 3.59917 0.711988
5799 1 1 10.9958 2.2941 2.72388 2.33159
1302 1 1 9.44204 4.40541 4.74467 0.788614
2191 1 1 12.4197 3.30224 5.10184 3.58638
7322 1 1 11.7462 2.96905 4.32133 0.780244
7532 1 1 13.0091 1.69947 6.48379 2.80747
98 1 1 13.0094 4.05511 4.43751 1.09198
1450 1 1 14.9409 3.18575 4.81947 0.405807
7758 1 1 16.1285 3.12333 5.16683 0.19676
588 1 1 14.7727 4.02823 3.62492 1.47917
2793 1 1 15.5712 4.68935 3.25872 0.637329
1336 1 1 16.1189 4.13145 4.85337 0.360887
7595 1 1 18.7118 3.12951 2.73719 0.756723
7202 1 1 16.1916 3.78243 3.157 1.64976
115 1 1 16.7547 3.01283 4.21253 2.74017
774 1 1 0.718753 7.18984 5.04402 1.00552
7791 1 1 1.96581 5.96004 2.88201 2.94483
2033 1 1 3.06457 5.80226 4.57638 1.35179
2044 1 1 2.88475 4.63123 3.47505 1.38944
799 1 1 3.98631 6.33791 4.8895 2.6275
489 1 1 3.3335 4.55731 2.17069 0.570462
188 1 1 6.0913 6.72505 1.95405 3.44546
580 1 1 8.15475 4.63902 5.20301 0.678984
7251 1 1 7.9961 5.52952 5.85047 1.25002
1850 1 1 8.68299 4.50936 4.05588 2.81965
6566 1 1 10.048 2.93177 4.70521 1.44377
5747 1 1 7.86128 4.18751 2.26079 2.19272
6996 1 1 9.1017 3.6528 3.34615 0.225326
1025 1 1 11.2474 6.04788 5.20176 0.542977
1585 1 1 11.3542 4.67417 1.54212 4.58077
6470 1 1 13.5348 4.64554 2.79774 1.19288
7782 1 1 13.9614 5.5315 4.46698 2.01525
2139 1 1 14.582 5.04096 3.35236 2.19635
1422 1 1 14.8239 6.8762 3.69601 1.24806
1213 1 1 15.5347 4.86061 4.61686 0.802846
7579 1 1 14.2245 7.28752 2.6769 0.743136
6719 1 1 16.8481 5.46713 2.96574 0.535188
7659 1 1 17.9315 7.31045 4.41441 1.91172
383 1 1 0.950579 4.73672 4.12983 2.59893
72 1 1 1.93704 6.96441 3.08212 3.33222
913 1 1 0.244469 8.92671 3.89485 5.18666
608 1 1 3.86117 6.23029 2.83105 0.667989
6159 1 1 18.6243 8.52124 4.84768 1.32911
509 1 1 4.63322 3.95714 2.38035 0.527689
2917 1 1 4.29466 7.69509 2.98497 0.688448
7601 1 1 3.83658 6.82511 3.66085 0.934433
3 1 1 2.86474 6.75371 4.92752 0.625871
1002 1 1 5.13291 6.49014 4.78533 1.00837
217 1 1 7.14341 6.48451 5.72915 1.14277
6477 1 1 7.97812 7.68441 2.74922 0.945208
985 1 1 6.57517 6.15382 4.94852 6.96713
7387 1 1 9.78336 5.8282 3.62094 3.28628
7683 1 1 7.9461 5.54153 2.89794 0.545738
7685 1 1 7.80692 5.52019 4.01827 0.603414
2855 1 1 10.5268 8.61876 3.49842 3.64353
6619 1 1 11.9981 8.8227 0.611202 0.270603
7850 1 1 9.51877 6.58283 6.4866 1.06382
7725 1 1 12.1143 6.05739 5.64804 0.405713
1203 1 1 16.9676 7.63264 2.65424 0.998368
102 1 1 18.4184 6.34144 2.92041 1.42958
538 1 1 0.976683 6.08079 4.09474 2.7513
1757 1 1 17.6371 8.22943 2.04945 2.85164
802 1 1 2.47171 8.6895 3.47841 0.808453
926 1 1 0.78887 6.89232 3.2922 3.29778
1275 1 1 2.6833 8.84696 4.56502 0.439969
7326 1 1 3.34685 7.33512 6.93376 0.447187
7242 1 1 3.05354 7.29906 2.98238 1.59981
153 1 1 6.1349 7.90463 4.54588 0.242578
1547 1 1 6.32939 8.3949 2.59472 5.47311
6971 1 1 5.32327 7.72907 2.7237 0.384453
1475 1 1 8.77043 6.64805 2.6163 1.23566
408 1 1 7.67053 6.49983 4.22267 4.28531
7335 1 1 8.74803 9.56457 2.89841 1.6669
1809 1 1 11.5314 7.33968 4.02803 2.23868
557 1 1 13.4998 6.57999 4.94106 3.62249
2798 1 1 17.1827 7.07558 3.58745 2.07782
2151 1 1 16.2909 6.80978 0.941431 7.51154
1079 1 1 1.56912 9.6122 4.10152 2.83179
1728 1 1 3.81089 11.2949 2.88534 0.885986
634 1 1 1.91126 10.2948 4.79607 0.188514
1005 1 1 2.66867 9.70604 3.13002 1.48158
715 1 1 7.37112 9.16166 2.84147 1.55923
440 1 1 5.90495 9.36414 3.11549 0.82638
345 1 1 7.18353 8.00531 3.87239 0.770393
154 1 1 8.73989 8.67061 2.31577 1.83933
1194 1 1 9.11442 8.47197 4.72458 1.16377
1295 1 1 9.19237 10.081 1.71774 4.08576
825 1 1 11.3077 10.1584 5.05798 0.263785
1833 1 1 10.298 10.7941 4.56338 1.68581
572 1 1 13.3422 11.5199 4.37321 1.26887
7739 1 1 14.4288 11.5492 2.88653 2.30787
1802 1 1 14.6643 11.2761 1.47935 0.645615
7085 1 1 15.682 9.47222 1.21324 1.06432
790 1 1 17.4759 9.34678 3.0628 0.357749
667 1 1 17.0899 8.18498 3.50094 0.636473
1709 1 1 18.455 10.7371 3.94549 1.19024
3565 1 1 18.2708 12.4021 4.38476 1.57062
1287 1 1 1.56763 11.2392 4.95697 0.230686
1349 1 1 4.69797 9.10639 2.9684 2.45806
6563 1 1 5.48958 13.1014 1.62196 0.846163
7130 1 1 3.44828 12.7119 6.8149 0.250972
6196 1 1 4.94398 8.82558 4.86069 3.26355
146 1 1 5.84619 10.4513 3.25354 1.10664
840 1 1 5.21763 10.5298 4.43037 0.830251
5697 1 1 5.54721 10.3802 37.5163 1.41989
529 1 1 7.11347 8.77652 1.98421 0.326398
95 1 1 6.22173 11.3172 2.38901 0.534266
7459 1 1 5.40521 10.7515 1.53055 1.22065
823 1 1 9.03406 9.87821 4.10788 1.37244
487 1 1 8.69745 11.1198 1.40165 1.94082
7139 1 1 7.84826 9.67841 3.61575 0.825008
1940 1 1 8.93612 11.7425 5.41962 0.259592
1487 1 1 8.14556 10.377 4.67763 0.702375
416 1 1 12.7672 10.5336 4.00942 1.16592
1199 1 1 13.6986 8.76336 3.79654 0.563843
7156 1 1 13.5483 12.0511 5.55137 0.929496
7004 1 1 16.9761 10.9733 3.88159 2.00243
1426 1 1 17.3005 9.84255 5.92326 0.294273
1000 1 1 1.18369 10.7329 3.56423 0.368662
2621 1 1 17.8526 11.4442 4.70125 0.406956
6762 1 1 1.39567 11.4981 2.74483 2.49744
2329 1 1 4.1055 13.0871 5.91215 3.16551
7717 1 1 3.15257 12.0696 5.92851 0.455079
7755 1 1 4.93349 15.3959 4.08907 0.0558672
6842 1 1 4.17551 12.244 2.96903 2.54482
699 1 1 6.03415 11.2715 4.542 1.35914
2732 1 1 8.42026 13.1358 3.12594 0.192529
7704 1 1 7.93578 11.4257 4.61149 0.192868
1920 1 1 11.6582 11.0291 4.61026 0.53554
640 1 1 9.99916 10.8007 3.2349 0.994674
7531 1 1 12.0045 12.2425 5.27887 0.76465
221 1 1 12.6361 10.3696 1.4636 0.600506
1100 1 1 14.263 13.0936 3.42178 2.20683
7798 1 1 13.9772 11.0912 6.04796 3.83352
7040 1 1 13.9622 14.0034 0.411493 0.506919
1493 1 1 16.6412 11.8006 2.58867 0.386067
1184 1 1 16.1326 11.5696 4.18099 0.502079
888 1 1 17.3494 14.0991 4.45429 1.84016
1024 1 1 0.645431 11.5713 4.61316 1.18373
986 1 1 18.0649 12.2564 5.45792 1.11632
2277 1 1 18.2372 13.9816 4.79708 1.87471
204 1 1 0.696368 16.424 2.72658 1.42653
1233 1 1 17.679 12.3363 3.34134 0.519401
203 1 1 18.6851 14.7895 4.84423 1.63941
7621 1 1 4.75072 15.7577 2.73768 2.63901
178 1 1 4.5105 14.0334 3.19524 1.3044
7811 1 1 5.23832 12.6995 0.525355 2.11349
584 1 1 6.34012 12.522 2.85567 2.12838
245 1 1 7.06212 14.2106 4.12978 0.251781
1505 1 1 5.68448 13.1414 5.96097 1.36925
1853 1 1 6.89215 11.7724 3.68854 0.74847
7489 1 1 9.19017 13.1556 2.10638 2.23458
906 1 1 10.6252 13.5834 3.1437 3.00934
2032 1 1 11.5792 13.3531 3.38717 1.1188
2126 1 1 14.0874 11.947 1.89365 0.868589
6946 1 1 11.4624 12.2807 4.26094 3.48608