ITEM: TIMESTEP
2200
ITEM: NUMBER OF ATOMS
8000
ITEM: BOX BOUNDS pp pp pp
0.0000000000000000e+00 1.8820720577620570e+01
0.0000000000000000e+00 1.8820720577620570e+01
0.0000000000000000e+00 3.7641441155241139e+01
ITEM: ATOMS id mass type x y z v_temp
351 1 1 1.3587 0.736271 1.04752 0.915885
1198 1 1 2.5221 0.569153 0.497611 0.217463
1116 1 1 2.93348 18.7861 1.22978 1.04504
6280 1 1 2.82572 1.07189 1.51503 0.896835
6076 1 1 4.40763 18.5143 0.0599211 0.0500796
7613 1 1 4.95558 18.3509 1.24758 3.39784
775 1 1 6.33218 2.34588 1.42345 3.88476
6363 1 1 5.98239 2.12311 0.484273 0.572055
175 1 1 9.03869 0.909529 0.514363 1.32018
934 1 1 7.97395 0.458076 0.54695 0.92363
1416 1 1 8.15295 0.268477 1.63295 0.943633
6582 1 1 10.5524 0.969785 1.13687 0.323105
1139 1 1 12.1892 1.61738 0.489419 2.95177
7873 1 1 11.5258 0.328175 0.824371 0.674609
352 1 1 13.2866 0.0198637 36.9612 2.10194
1377 1 1 14.6753 1.25109 0.471662 0.950973
7568 1 1 14.0358 0.0593897 0.33321 0.2048
1186 1 1 16.0307 18.196 1.33894 0.448329
1265 1 1 16.2263 1.83121 0.0166164 0.233884
126 1 1 16.0582 0.3363 1.20798 1.63719
791 1 1 17.8185 0.128654 0.0888524 0.569051
1999 1 1 18.3065 18.0811 1.17145 1.10299
383 1 1 17.7929 1.87152 36.4684 2.38867
7930 1 1 18.2962 1.29481 0.89212 0.165221
6845 1 1 18.1486 2.4352 0.556556 4.99124
31 1 1 0.34816 2.4766 1.76962 2.32139
1739 1 1 1.99961 1.48063 0.941435 1.26566
7604 1 1 3.3062 2.12311 0.596152 0.17098
155 1 1 4.33783 0.6736 1.22721 0.993741
7785 1 1 5.15824 2.28509 1.2079 1.20973
1446 1 1 6.99301 1.84221 0.7682 0.89497
217 1 1 7.43937 3.17394 37.5875 1.72737
418 1 1 7.93967 2.27128 1.04144 0.783797
726 1 1 10.259 2.08162 0.799256 0.43496
2348 1 1 11.3204 1.83075 1.32051 0.832531
1333 1 1 12.3693 1.8831 36.9217 1.22142
515 1 1 12.7944 1.68947 1.37327 0.986188
7745 1 1 13.296 1.2882 0.534006 0.62808
1270 1 1 13.8379 1.82344 1.1385 0.701769
6850 1 1 13.7845 2.42941 0.0796113 2.75481
1037 1 1 15.6319 2.14791 1.73073 2.02685
1315 1 1 17.1855 1.45799 1.52563 1.80162
6006 1 1 1.25574 4.69464 0.74678 2.19827
508 1 1 1.91076 2.45253 0.545317 1.91805
1045 1 1 1.62477 4.71122 1.98507 4.7028
875 1 1 2.05621 3.95826 37.5228 0.330442
7718 1 1 4.11371 3.35059 0.0509927 3.72112
6152 1 1 5.47984 3.64236 1.70371 1.63345
1348 1 1 5.18385 3.17333 0.562877 4.33245
6026 1 1 4.47556 3.94849 0.931192 0.523233
1850 1 1 7.11403 3.01342 0.92385 0.543272
1381 1 1 8.08814 4.3627 36.7887 1.72198
7861 1 1 8.09594 3.37059 0.863997 1.12266
7032 1 1 10.2378 4.22482 1.62331 1.1614
1661 1 1 10.5515 3.18979 1.94012 0.796481
7588 1 1 11.9308 3.2097 1.16367 3.79866
6060 1 1 11.8044 4.12368 1.54538 6.09263
1806 1 1 14.2922 3.33923 0.391297 0.636717
7155 1 1 12.6946 4.08194 0.598955 0.242632
437 1 1 13.4129 3.42973 37.5472 2.67909
7301 1 1 14.9819 2.19381 0.494568 0.90745
2221 1 1 15.7338 3.1088 0.855562 6.99965
7468 1 1 14.7447 3.73108 1.45171 0.381583
5355 1 1 16.3542 3.60375 1.42479 1.97323
223 1 1 18.7559 4.55448 37.317 2.89119
2033 1 1 18.1211 3.42738 1.7067 3.11614
1401 1 1 1.05581 3.70853 37.5231 1.08069
7697 1 1 3.12028 5.78714 37.642 0.307166
936 1 1 3.32237 4.62934 1.34091 0.795344
7904 1 1 3.88904 4.44159 0.0557292 1.84661
582 1 1 5.86633 3.99576 0.168118 1.55212
6922 1 1 9.61354 4.49356 0.412994 1.10612
7748 1 1 7.90775 6.01638 0.768647 2.60524
7387 1 1 8.18781 5.00463 1.08616 1.17456
6703 1 1 9.22871 3.6323 0.912728 0.965262
6551 1 1 10.6767 4.31382 37.4767 5.39025
7408 1 1 11.5713 4.39598 0.358524 1.91426
6044 1 1 12.8875 5.29939 0.642767 3.20834
271 1 1 14.6368 5.22244 0.737906 3.09688
7320 1 1 14.5101 3.86386 37.1488 0.591975
7115 1 1 15.3515 4.05551 0.454448 0.397622
1329 1 1 16.3977 4.65994 0.72325 1.74534
103 1 1 17.5115 5.85722 0.756381 0.48652
7091 1 1 16.5976 6.04142 0.158347 2.68504
7717 1 1 18.6659 5.73473 1.2476 6.66013
6161 1 1 1.1548 6.2373 0.420204 1.69355
137 1 1 17.8245 7.36093 1.92599 0.666323
7507 1 1 0.522548 7.05192 0.999217 0.48476
1409 1 1 0.980659 6.39421 2.00452 0.134486
7942 1 1 1.15157 7.96156 37.3814 3.01184
6971 1 1 2.83 7.52259 1.59384 2.82148
72 1 1 2.42768 8.51377 37.4316 3.68713
190 1 1 4.09612 6.31617 37.2194 1.8805
6605 1 1 3.25288 6.5206 1.78431 4.13037
7215 1 1 3.40025 4.84071 2.6797 0.43794
294 1 1 5.23706 6.45364 1.01555 2.69536
7944 1 1 5.00183 6.7144 1.9585 0.605897
5747 1 1 7.00911 4.47526 1.88978 0.636736
429 1 1 8.9745 6.35373 37.3343 1.5051
7094 1 1 10.1706 7.06886 2.23505 2.03036
21 1 1 9.28653 5.41393 37.236 1.66492
61 1 1 10.2854 6.11533 0.111721 1.67863
6619 1 1 12.2302 7.13777 0.62883 0.769973
550 1 1 11.6521 5.62212 0.846311 0.679112
533 1 1 11.006 6.10124 1.47624 2.49929
1664 1 1 14.5307 6.4638 1.07709 1.34149
486 1 1 13.9188 6.92103 1.84985 1.11439
591 1 1 15.1432 6.95741 1.7832 1.37905
164 1 1 15.5394 4.20374 37.0093 5.52095
762 1 1 16.7885 8.15286 37.3623 1.62366
6476 1 1 16.0209 6.7973 0.873015 1.37932
5857 1 1 16.9709 7.0067 37.2426 0.501096
354 1 1 4.47222 8.04126 0.419657 2.53757
6987 1 1 3.3506 7.60424 0.288869 1.3646
6874 1 1 7.86175 8.3215 1.87974 0.371762
1415 1 1 5.32937 7.59832 1.09344 0.534656
615 1 1 7.70088 8.07853 0.846829 0.171103
7740 1 1 8.09668 8.65887 0.0134244 1.42823
7958 1 1 10.4185 7.89637 0.16306 3.09809
973 1 1 10.7959 7.91182 1.98553 1.57451
6463 1 1 11.4817 7.7211 1.04409 2.78228
91 1 1 14.7113 7.84244 1.12364 2.03359
1193 1 1 13.3347 7.92123 1.61296 0.821509
276 1 1 15.8368 8.41172 0.20963 1.77992
5649 1 1 18.8244 8.57915 0.421997 1.93087
371 1 1 16.9833 7.7308 0.91318 2.48412
1360 1 1 2.0874 9.49225 0.184637 2.38767
6196 1 1 2.26311 8.4394 1.11052 3.29964
6762 1 1 1.57121 10.5773 2.32909 1.22036
6126 1 1 5.04793 10.4298 0.485013 1.08799
834 1 1 3.97012 10.9003 0.451302 2.13785
7326 1 1 6.45337 8.77452 1.99988 1.45661
1681 1 1 4.81618 8.96051 1.18962 0.764588
6584 1 1 8.1008 10.3448 1.10365 2.0595
7065 1 1 7.0606 9.24565 0.807434 1.06987
7943 1 1 8.96595 9.99591 1.73445 1.3854
1781 1 1 8.32951 9.06617 2.39224 0.110642
6497 1 1 10.0948 9.73041 1.07906 0.618988
7866 1 1 10.6478 9.03102 0.470488 0.998862
6699 1 1 11.3489 9.21522 37.4092 0.844496
574 1 1 12.4508 9.66171 1.28012 2.67477
7266 1 1 12.2957 8.68647 0.72451 0.709103
7983 1 1 14.0051 8.59348 0.823261 1.21956
7021 1 1 16.6538 9.0769 0.495887 2.24641
6599 1 1 17.3333 10.4777 36.7884 1.15504
6159 1 1 17.6075 9.79097 1.4565 6.0445
86 1 1 18.403 9.78079 0.246871 1.06123
7621 1 1 4.07262 11.459 1.73688 3.13393
7967 1 1 1.55084 11.0662 0.990696 0.48062
7047 1 1 3.80301 10.0791 1.17579 1.80024
6656 1 1 3.97702 10.011 36.8695 2.60156
955 1 1 5.56869 10.9354 1.11925 0.94719
6842 1 1 8.12952 11.3886 1.49916 1.23516
7002 1 1 9.20874 10.3336 0.635385 1.37753
1790 1 1 7.03867 10.1983 0.841913 1.68066
6380 1 1 4.68422 9.29276 37.1713 2.29428
6933 1 1 9.67063 9.03745 37.5089 3.34791
721 1 1 10.6871 10.2287 0.33846 3.84975
6752 1 1 9.76777 11.7663 37.5545 1.29993
6527 1 1 10.8568 11.8262 37.1361 0.768164
38 1 1 12.3676 10.8727 0.463459 1.2654
678 1 1 10.7981 11.3713 0.4129 2.66819
423 1 1 14.8991 10.8784 1.07941 1.79923
1074 1 1 14.1717 9.62334 37.4631 2.1731
1068 1 1 14.4035 11.0009 37.0894 2.01607
969 1 1 16.5279 11.3683 0.253717 0.750166
1349 1 1 17.4549 10.8224 0.465983 1.12238
634 1 1 0.629724 12.2782 0.428268 0.429624
7772 1 1 0.619541 11.0575 1.53486 1.22233
7836 1 1 0.158574 12.2117 36.9309 0.6597
7855 1 1 0.78442 12.9339 1.78408 0.895972
549 1 1 3.04911 12.7208 36.9513 4.31452
773 1 1 1.74734 13.0296 1.19121 1.0312
7056 1 1 3.33972 12.6931 1.32428 1.21299
8000 1 1 6.71091 11.9114 1.26807 1.81485
7854 1 1 6.02479 10.3427 0.341786 4.2183
1432 1 1 6.74921 12.5188 0.347967 2.01825
829 1 1 7.43787 13.1772 0.338418 2.36148
10 1 1 8.79877 11.8508 0.716508 0.899986
6399 1 1 9.55957 13.4014 0.883029 5.74026
6939 1 1 10.4465 12.6625 0.358712 0.947749
1103 1 1 11.703 14.5204 0.929607 1.33063
236 1 1 10.3385 12.6174 36.6692 1.12714
7548 1 1 14.7393 12.4902 0.548692 0.301905
2320 1 1 13.4871 11.423 1.25884 0.443355
6590 1 1 14.3908 13.3579 1.87406 3.34648
7993 1 1 15.4709 11.8943 0.082756 0.782901
2353 1 1 14.8992 11.7078 1.97382 1.04609
7670 1 1 17.231 12.1837 0.685344 4.03972
1676 1 1 16.3981 11.889 1.61997 1.12132
1567 1 1 18.0913 12.6257 37.3672 0.9042
7947 1 1 1.57023 14.1224 1.80646 7.17683
962 1 1 18.2556 13.0803 1.08659 0.206061
4804 1 1 1.01733 13.9923 0.589237 3.42567
7957 1 1 1.72163 14.9994 2.28269 0.916529
1350 1 1 4.35145 13.5658 0.548884 0.342144
7217 1 1 3.85325 15.0555 0.977482 4.06974
6232 1 1 5.30894 12.764 0.987404 3.1829
287 1 1 5.82103 12.1656 36.4325 1.25384
7248 1 1 5.51864 15.3876 1.02254 2.09356
239 1 1 7.19115 14.2304 0.727422 2.24721
1144 1 1 10.4045 14.4766 0.49504 0.47197
1295 1 1 8.14549 13.9189 1.7981 1.36937
976 1 1 13.4158 13.5491 1.70426 0.816853
7680 1 1 12.8907 14.9084 0.81322 1.63531
297 1 1 14.4607 13.6364 0.693053 0.56101
7052 1 1 14.2798 14.6723 0.460448 1.07105
7853 1 1 17.8948 13.6959 37.4364 1.09317
2409 1 1 17.894 14.4796 1.30057 3.20233
7338 1 1 17.945 12.2042 2.75899 2.57151
1529 1 1 17.8704 15.4421 0.766905 1.54983
7926 1 1 2.13804 16.0671 0.239925 1.94421
686 1 1 1.30307 16.0171 1.99581 1.65447
7101 1 1 1.18291 15.8931 0.88572 0.409461
7454 1 1 2.55555 14.8117 36.3962 1.06688
558 1 1 3.12883 14.2298 1.6299 0.102931
1481 1 1 4.57409 16.4556 0.416217 0.166681
844 1 1 5.00315 15.4049 37.4666 1.33383
1210 1 1 7.38795 15.4446 0.165842 0.976392
7891 1 1 10.6547 15.433 0.755627 0.0475501
7180 1 1 10.7782 14.8157 1.51107 1.01152
7543 1 1 13.4567 15.4859 0.117795 2.50666
389 1 1 14.7174 15.6196 0.862878 0.695889
432 1 1 13.703 14.7276 1.53768 1.73967
653 1 1 15.807 16.2024 1.18822 1.61722
393 1 1 16.111 13.9923 0.0338846 3.49445
7390 1 1 16.9278 15.2414 37.5364 3.57842
1406 1 1 16.4408 15.2905 1.56228 0.369823
579 1 1 18.6031 14.867 0.0312117 0.878078
7451 1 1 0.756462 17.3995 1.71537 2.252
1569 1 1 0.571389 18.6014 36.6327 2.45168
757 1 1 2.69349 16.9913 0.300009 1.20403
7569 1 1 4.33089 16.5268 36.9594 4.3975
1729 1 1 4.91993 14.8485 1.60576 3.13347
605 1 1 5.78168 16.5541 0.890351 2.15208
1995 1 1 6.61612 16.1299 0.674413 0.453341
7303 1 1 7.23686 17.8592 1.88599 1.19444
1582 1 1 7.44386 16.7495 37.5155 0.770343
13 1 1 7.07879 17.654 0.617321 0.605414
1206 1 1 10.4714 17.2861 0.741398 1.91254
6851 1 1 9.08872 15.4853 0.390508 2.05131
7452 1 1 11.2103 16.3425 0.953503 0.952888
7149 1 1 12.0928 17.1035 1.61599 0.968729
433 1 1 11.8706 15.6218 2.1715 0.206881
7341 1 1 13.9967 16.4116 37.3988 2.50933
1110 1 1 16.6919 16.3418 2.14728 0.30564
356 1 1 15.0007 16.8204 0.279933 0.48957
629 1 1 15.9119 15.5013 0.34343 1.23395
1042 1 1 16.9601 16.5496 0.5907 1.69373
5999 1 1 17.9222 17.2358 0.409811 1.0322
7892 1 1 0.106204 18.0657 -0.0254696 3.58415
129 1 1 1.3356 17.7769 0.383632 3.33465
6688 1 1 2.67419 17.847 1.02835 2.5104
692 1 1 3.50428 18.1837 0.624667 0.183116
6713 1 1 2.64308 18.437 37.4701 1.66133
7404 1 1 3.50061 16.1847 2.19238 2.56163
835 1 1 5.27201 17.1801 37.5045 2.01931
6835 1 1 6.46825 17.6133 37.2237 1.47943
566 1 1 6.83361 18.7527 2.29579 2.57894
6914 1 1 8.55266 18.7342 37.4126 0.802272
5985 1 1 11.6449 17.4976 0.588901 1.08779
472 1 1 11.7032 18.2397 1.73725 0.221381
7672 1 1 12.6528 17.9833 0.474091 0.385823
2287 1 1 16.0388 18.0002 0.117727 0.837417
6092 1 1 13.8132 17.9425 1.49228 0.636824
7106 1 1 16.9436 17.8832 36.6801 1.1824
7202 1 1 16.9883 17.846 0.118736 7.51589
2662 1 1 17.5598 16.9813 37.1146 2.70091
7261 1 1 0.146426 17.0471 37.453 1.80859
194 1 1 0.298157 0.656103 2.02095 0.539618
954 1 1 1.25331 1.00688 2.27964 0.955672
643 1 1 2.70456 2.45464 1.41085 1.89612
7818 1 1 4.134 17.9052 2.28905 4.71795
3146 1 1 3.72838 0.915038 2.06941 0.978274
1279 1 1 2.10757 0.219524 2.18305 3.22225
7166 1 1 4.61297 0.211937 2.3541 0.085203
1140 1 1 6.28867 0.894629 2.52331 0.496053
895 1 1 7.32424 0.834348 1.37293 0.767128
700 1 1 11.0248 0.667024 3.81569 2.50581
6986 1 1 11.08 18.346 2.82108 1.09571
1708 1 1 11.2317 0.247501 2.01739 1.79307
505 1 1 15.0412 18.7102 1.21844 0.391902
2106 1 1 13.1253 0.643832 1.46782 1.74117
640 1 1 13.0999 18.7039 3.31054 5.30061
7440 1 1 14.9783 0.495147 2.24923 0.851768
1928 1 1 18.3764 18.5002 2.40811 0.192471
1672 1 1 18.7974 0.486247 3.1851 0.107882
7992 1 1 1.33592 1.99221 1.77531 2.76361
7938 1 1 1.84953 3.24984 1.48854 1.98579
656 1 1 4.4159 2.643 2.6187 0.622256
489 1 1 3.89077 1.80471 1.55196 0.344272
1309 1 1 4.92884 1.46425 1.73731 2.29084
6942 1 1 5.99856 1.26107 1.59072 3.69278
7535 1 1 8.56613 1.07601 3.25488 1.32872
7332 1 1 8.39402 1.20974 2.00682 2.16333
6477 1 1 8.34437 2.29659 2.46549 0.701158
94 1 1 9.17215 3.04326 2.99781 1.78811
6659 1 1 9.22176 2.14586 1.3297 0.788933
82 1 1 9.17585 3.03735 1.76958 0.348005
1993 1 1 9.73159 1.83205 2.67803 2.43148
511 1 1 13.2202 1.41056 2.24889 1.04858
1339 1 1 11.9562 0.942318 1.78837 2.56702
122 1 1 11.5837 2.31647 2.53493 1.09141
3071 1 1 13.9107 2.99349 1.95369 0.537654
1183 1 1 14.1502 0.99284 2.52709 0.65061
1591 1 1 15.9742 1.27851 2.00868 3.42043
149 1 1 14.9701 1.73568 2.34463 4.61566
1020 1 1 16.1535 3.2029 2.37276 0.268215
7088 1 1 18.0357 2.2268 1.82969 2.9866
7841 1 1 1.84955 3.23787 2.68803 1.6596
366 1 1 0.181464 3.54976 2.21666 1.75429
406 1 1 2.91957 3.8834 1.93392 2.65474
509 1 1 1.52396 4.52231 3.3873 2.7103
2824 1 1 4.29877 2.86152 1.19088 1.97871
3 1 1 5.22205 4.76678 2.96935 2.91159
1237 1 1 5.11047 3.38883 2.97517 0.496258
7503 1 1 5.4739 4.64666 1.07175 2.38954
7663 1 1 6.36906 3.2302 2.61754 0.856268
7653 1 1 8.8854 5.23685 1.81149 1.18886
661 1 1 7.60053 3.3164 2.30859 2.23462
56 1 1 7.28185 2.36589 2.51876 5.73242
570 1 1 9.26109 4.02236 3.33003 3.00984
3337 1 1 11.5011 3.48688 2.45923 1.71979
1648 1 1 10.2333 3.00414 3.00393 1.30627
980 1 1 13.0521 2.56998 1.69575 2.43221
1239 1 1 13.8384 4.33982 0.718008 0.503171
6241 1 1 14.8872 2.94619 2.1926 0.568514
651 1 1 16.3999 3.74086 3.15701 0.975578
115 1 1 17.2905 4.1678 1.52105 0.944121
7937 1 1 0.0414427 2.77314 3.23576 0.747622
314 1 1 18.7356 5.04004 2.84594 1.93113
7284 1 1 0.372546 4.56869 1.44685 0.864377
7631 1 1 3.00989 4.53807 3.92201 2.01693
68 1 1 2.17556 6.27435 1.07076 2.23249
7660 1 1 2.33499 4.3682 2.63933 0.377871
1714 1 1 7.24743 5.58295 1.96686 0.376113
7643 1 1 7.76909 4.95609 2.73527 0.784069
7644 1 1 10.5301 4.13068 2.60564 0.270186
553 1 1 12.2681 4.27967 2.56562 0.234871
7348 1 1 13.5715 4.0677 1.79691 1.66205
588 1 1 12.8849 5.55783 3.56388 2.18761
1826 1 1 13.6306 4.78195 2.7822 1.51789
1833 1 1 14.5399 5.67028 2.19644 1.88729
469 1 1 15.9976 5.66643 0.979998 0.359114
7358 1 1 16.7285 4.43958 2.25239 0.0700607
802 1 1 17.6257 6.04556 2.04316 0.0764767
7659 1 1 17.6324 4.83319 2.33551 0.504739
3092 1 1 17.3746 5.18116 3.36714 0.172879
1287 1 1 18.2112 6.86898 3.4574 2.06433
5817 1 1 2.68152 6.70929 3.52907 0.235885
7242 1 1 1.66084 6.39054 2.93054 0.571113
7803 1 1 2.39397 5.58679 2.37278 1.06159
7738 1 1 4.67845 5.69176 2.52961 3.43702
1596 1 1 3.57058 7.17536 2.57047 1.02749
1427 1 1 3.56662 5.50248 1.84915 1.22829
214 1 1 6.57707 6.36355 3.24764 1.34571
1076 1 1 9.22058 6.56903 1.79682 2.03244
1369 1 1 8.93661 5.28888 3.74301 0.497297
117 1 1 9.91272 6.28692 2.97152 0.42673
7625 1 1 10.5055 5.14157 2.10109 1.0232
7972 1 1 11.8078 6.04208 3.86077 0.163807
140 1 1 11.9761 5.63643 1.85472 0.136232
7719 1 1 13.0564 6.02467 1.38703 0.281472
7185 1 1 15.1233 5.44103 3.4199 2.07781
1537 1 1 16.0616 7.32938 2.28972 0.541577
7544 1 1 15.6803 5.60026 2.16786 2.16859
6995 1 1 17.7819 8.20251 3.23907 2.06596
6975 1 1 1.81067 9.51029 2.25819 3.18005
1562 1 1 0.0448661 7.23753 2.03844 1.09582
926 1 1 1.55067 8.07325 2.11684 0.373482
7472 1 1 1.69056 8.32438 3.18237 0.556625
925 1 1 4.61426 7.89642 2.45547 1.24473
529 1 1 6.44247 8.18163 0.739793 1.0187
1547 1 1 5.23168 8.68419 2.36324 0.20206
1224 1 1 8.3361 7.37047 1.7241 2.7653
1194 1 1 8.96944 9.09784 1.07085 0.230936
1107 1 1 10.1345 6.38587 4.06885 0.85718
6566 1 1 9.28907 7.70045 2.43027 0.301432
519 1 1 11.2025 7.97795 3.0553 0.421679
2244 1 1 12.1701 8.12142 1.63864 3.02757
277 1 1 11.4497 6.62298 2.42741 4.8414
5690 1 1 13.3586 7.64872 2.90985 0.242628
543 1 1 14.3363 8.20841 3.09625 1.89281
102 1 1 15.263 8.02433 2.11474 1.9221
913 1 1 16.3388 8.35903 2.16828 1.12109
669 1 1 16.936 9.46707 2.76393 1.7334
6675 1 1 17.1614 7.36193 2.73203 0.643542
107 1 1 17.6788 9.12812 3.66853 1.94484
1036 1 1 1.29039 9.30956 1.34081 1.18063
178 1 1 2.1046 10.5336 4.12145 1.29136
1863 1 1 4.51832 9.53344 2.3198 0.161355
369 1 1 3.5411 9.04749 1.32677 2.28695
2311 1 1 5.12675 8.95863 3.30968 1.54684
1046 1 1 5.40626 9.67803 1.93323 2.26696
238 1 1 8.03281 10.3611 2.16554 0.691985
985 1 1 9.61936 9.10567 1.9531 4.23614
7538 1 1 8.20834 10.6899 3.79283 0.698537
341 1 1 10.2169 7.44466 3.56775 0.518137
7156 1 1 10.0178 10.3241 1.97974 0.113779
610 1 1 11.4776 9.14052 1.16713 0.334061
1487 1 1 12.1615 10.1636 2.77842 0.911943
7945 1 1 14.3076 8.28297 2.13082 2.22761
1906 1 1 15.51 8.85225 2.83918 1.84413
79 1 1 16.343 10.0864 1.82802 0.600873
247 1 1 0.657998 8.37349 1.75826 3.39765
7851 1 1 18.7232 11.1408 2.32837 0.699732
230 1 1 0.671173 10.0689 2.16633 1.25689
300 1 1 1.46767 10.808 3.30502 1.69255
7966 1 1 2.87495 10.4793 2.76986 1.37541
445 1 1 3.76332 11.895 2.56322 0.948831
765 1 1 2.91681 10.0481 1.68911 1.41289
340 1 1 4.06709 10.4984 2.23362 2.50246
1264 1 1 5.77567 10.7348 2.59164 1.87311
481 1 1 6.10025 11.8527 2.44696 1.76979
1389 1 1 5.53808 10.5111 3.81188 1.74549
7335 1 1 6.99665 11.1953 2.03905 2.69289
4198 1 1 9.24432 10.4678 2.81673 0.526869
1069 1 1 11.1724 10.047 1.81041 2.66581
2814 1 1 9.15629 11.304 1.85405 0.3955
1385 1 1 10.0933 11.1317 2.56325 3.70899
6693 1 1 13.4626 9.88638 1.64192 0.853996
386 1 1 12.0109 11.1441 2.16178 0.50762
7913 1 1 15.2107 8.90089 1.4513 1.1226
374 1 1 13.2055 10.6335 2.53463 0.611921
818 1 1 14.0144 11.4169 2.50351 1.29344
1234 1 1 17.7509 11.3955 3.37899 3.98458
7800 1 1 16.5271 10.0602 0.449464 1.45639
336 1 1 18.5543 11.7193 0.956206 2.46926
7089 1 1 18.4261 10.4743 1.34892 0.747713
259 1 1 1.7863 11.8713 2.08061 2.9239
245 1 1 1.59196 14.1518 2.86611 0.450308
7811 1 1 2.72819 12.4382 2.95461 0.111288
584 1 1 5.50621 12.2927 3.40328 1.19541
704 1 1 5.073 11.9403 1.51193 0.413164
769 1 1 6.84803 13.0407 2.53984 1.53435
6646 1 1 3.3999 13.2459 2.18255 2.02387
815 1 1 6.68488 13.4676 1.44209 0.972134
1542 1 1 7.74045 12.485 1.55167 0.0825443
7704 1 1 8.47001 12.7172 2.15506 1.81633
1475 1 1 8.25167 12.4714 3.09784 2.59136
7459 1 1 8.72262 11.5477 2.77999 1.44804
563 1 1 9.68715 12.1779 1.48697 2.49623
734 1 1 9.43 12.9688 3.26291 0.088392
6723 1 1 11.2815 12.574 1.71378 2.45634
7004 1 1 11.0827 11.238 1.56837 0.703837
7834 1 1 13.4033 12.3293 3.45502 3.90221
2150 1 1 12.1241 11.7568 0.984721 2.61469
627 1 1 15.2471 12.7069 2.63093 0.104258
1514 1 1 16.1128 13.1475 1.49032 0.364755
712 1 1 16.6851 13.4903 4.34417 4.73197
234 1 1 18.0948 13.8223 2.02601 0.261218
1082 1 1 0.633351 11.9335 2.77299 0.514694
1971 1 1 0.293788 13.9014 1.75548 2.04791
6459 1 1 4.17619 14.3391 2.38914 2.28606
7060 1 1 5.47324 13.9909 1.28238 1.9051
6600 1 1 5.68341 13.0397 2.614 1.41474
487 1 1 7.91921 13.3175 2.80791 2.00642
365 1 1 7.29763 15.45 2.63387 1.00233
53 1 1 7.66558 13.7265 4.0725 0.252707
1165 1 1 8.34397 12.7665 0.71806 2.93696
7984 1 1 9.56929 15.0595 1.31999 1.57427
286 1 1 11.0175 13.4866 0.814379 0.210005
416 1 1 11.612 13.5978 1.61435 1.02184
6750 1 1 14.4379 14.3646 2.34154 1.02408
1187 1 1 13.5889 12.5331 2.19841 1.44558
1904 1 1 13.2223 14.5782 2.62678 0.70344
7444 1 1 15.6229 14.2875 1.41694 1.39186
375 1 1 16.8702 14.4434 0.675588 4.38403
1282 1 1 0.906257 14.9827 1.6107 0.852626
1561 1 1 2.60492 15.4035 2.68442 0.323868
785 1 1 3.73715 15.2932 2.0465 1.75205
504 1 1 4.45834 16.3132 1.55259 0.370303
1527 1 1 5.55714 16.0764 1.84043 0.310108
2046 1 1 5.55391 16.8378 3.06708 0.768643
7489 1 1 6.45002 15.3318 1.97645 3.30643
885 1 1 6.34388 14.3207 3.2799 0.279262
902 1 1 6.65834 15.6596 3.3792 1.02075
1940 1 1 9.05265 16.0422 2.75282 3.91007
2224 1 1 11.6363 15.5442 0.178265 1.982
961 1 1 8.41461 15.6099 1.49061 1.12353
7893 1 1 11.5915 14.8042 2.87898 1.01369
7757 1 1 15.2883 15.1863 2.08713 0.767803
93 1 1 15.3703 14.5302 3.11106 0.288901
1077 1 1 15.4437 13.6293 2.33221 0.0480071
1614 1 1 16.8832 14.6528 2.45711 0.0894102
7951 1 1 0.0963492 16.3832 1.55786 2.57759
7116 1 1 17.5187 15.7411 1.78066 1.60161
439 1 1 2.23007 16.3233 1.34871 0.715513
1634 1 1 1.82504 17.2402 2.0133 1.51273
7934 1 1 4.01765 16.9116 2.8836 3.38776
763 1 1 6.51461 16.5882 1.75274 4.78122
7620 1 1 9.53495 15.9527 1.91355 0.902967
1196 1 1 10.2664 18.293 2.08259 1.58318
338 1 1 10.5115 15.6704 2.64502 3.6444
1167 1 1 12.4688 16.6157 2.37617 0.730173
7163 1 1 14.4174 16.6262 1.16691 0.99575
820 1 1 13.3046 15.5822 2.94293 2.52342
1308 1 1 14.8372 17.8521 2.17742 0.922311
1479 1 1 15.3845 16.3336 2.35846 0.173322
1638 1 1 18.1908 16.8989 2.52457 2.98625
328 1 1 1.68886 18.3268 1.39285 0.454719
859 1 1 0.209933 18.7914 1.01244 0.644995
611 1 1 2.96875 17.6571 2.99419 1.75825
6866 1 1 5.31358 0.367433 1.70637 0.136776
687 1 1 5.41271 17.2312 1.9593 5.43928
7300 1 1 5.79707 18.3167 2.20927 4.08826
1328 1 1 6.62553 17.9696 2.92687 2.36569
96 1 1 7.57572 18.4681 2.97666 0.19238
6079 1 1 9.24226 18.7855 1.21803 2.2067
173 1 1 8.48339 17.5622 0.120928 1.5455
7950 1 1 9.97442 16.7371 1.36677 1.77435
696 1 1 10.9578 17.4606 3.88432 3.93646
1616 1 1 12.1038 18.1662 3.05651 2.28069
20 1 1 13.3116 17.0202 1.69772 1.43897
1588 1 1 13.8873 18.7806 1.88616 0.781248
6872 1 1 16.5718 17.6098 2.2337 1.06215
881 1 1 15.977 15.7229 3.31074 2.63464
1269 1 1 17.6764 17.8887 2.29661 2.63232
7497 1 1 17.0003 0.0893628 0.888136 1.29306
7744 1 1 17.442 0.0121783 1.89237 1.83602
1607 1 1 0.700905 17.8804 2.82934 0.861659
18 1 1 0.835176 18.2357 3.73302 0.0699187
2026 1 1 2.2528 1.64965 2.39486 0.862159
547 1 1 2.92989 0.795208 2.76604 0.521789
1327 1 1 3.35376 18.2603 4.30908 1.51839
633 1 1 5.06639 1.69724 3.76432 0.841996
1738 1 1 4.93296 1.91861 4.94715 0.852437
2126 1 1 7.32024 1.16377 3.84765 0.481789
7982 1 1 7.91679 0.152189 3.69843 0.51979
1168 1 1 9.89264 0.963928 3.63774 4.54116
497 1 1 7.43086 0.878369 2.80191 1.02355
1579 1 1 10.937 18.4005 4.25309 0.332969
7150 1 1 10.1466 1.73792 4.18446 0.870127
7821 1 1 12.1781 0.603419 2.87901 4.36853
7669 1 1 12.8436 0.114294 4.26976 0.19564
7980 1 1 14.1911 0.221652 5.05554 1.91497
2270 1 1 14.3216 1.0771 3.79214 4.35624
430 1 1 15.3584 1.28921 4.68503 0.0884736
1413 1 1 17.3183 1.1858 3.28384 0.20885
867 1 1 16.2067 1.55636 4.34442 1.47801
7028 1 1 15.9203 1.68747 3.22969 0.631008
853 1 1 17.3832 0.0374464 3.35503 0.479373
1443 1 1 18.025 1.28101 2.57284 2.89719
879 1 1 1.46324 1.54338 3.23626 0.907698
2030 1 1 3.19044 1.79326 2.25887 0.521367
109 1 1 2.57272 1.60915 3.54517 0.498247
7251 1 1 2.52874 3.71288 3.72184 2.86569
915 1 1 3.54719 2.40891 3.26101 2.81719
1543 1 1 5.66099 2.72772 2.20601 2.3477
1322 1 1 5.64993 2.69478 3.47569 0.552485
7989 1 1 6.05389 1.69686 3.3926 0.406583
454 1 1 8.22094 2.67034 4.20655 0.0365919
1466 1 1 9.33941 1.87462 3.58429 1.61896
824 1 1 10.6524 2.02102 3.38657 0.610953
1213 1 1 14.114 2.16856 2.72613 0.995626
906 1 1 11.9964 1.31668 3.63908 0.76212
409 1 1 12.8186 2.62617 2.72142 4.0738
2075 1 1 12.585 1.83477 4.4387 3.69699
1473 1 1 13.0398 1.37257 3.53542 1.27734
1044 1 1 14.2313 1.53922 4.77386 0.289821
1223 1 1 15.5413 2.64519 2.94958 1.1974
387 1 1 14.4729 2.05863 3.86469 0.903984
7601 1 1 16.5273 2.58654 3.26282 0.375958
206 1 1 0.311506 1.62116 2.48054 1.54445
148 1 1 0.434098 1.36849 3.48067 0.647889
874 1 1 17.7095 2.27137 3.18977 2.03409
7280 1 1 1.18357 2.92159 3.30578 2.69465
1374 1 1 0.56407 4.10663 3.13531 1.49698
6648 1 1 2.11439 4.30218 4.36511 0.63942
774 1 1 1.32789 3.52612 4.2327 1.02816
7123 1 1 3.39607 3.01765 2.17984 2.33791
2917 1 1 2.52606 2.58858 3.07888 0.12536
1365 1 1 3.47753 3.74502 2.93747 1.29841
7921 1 1 4.13588 4.12234 4.04816 2.59933
7685 1 1 6.89358 4.06802 2.84537 7.58314
1488 1 1 6.55194 3.08502 4.19877 0.11699
2177 1 1 7.35384 2.92788 3.58786 0.562311
1208 1 1 7.51659 3.87987 3.99602 1.15029
544 1 1 10.1443 2.87441 3.95906 0.297559
623 1 1 11.7599 3.05286 3.4549 0.394261
7010 1 1 11.7533 2.81748 4.45136 3.04404
446 1 1 11.7543 4.04884 3.56172 1.79179
2139 1 1 14.4462 4.30626 2.37779 2.24403
2867 1 1 15.4733 2.29618 5.19132 0.856877
1539 1 1 15.9691 2.91217 4.21244 0.441968
1422 1 1 17.0195 3.80477 5.13131 1.25069
7914 1 1 15.5332 3.52581 5.1949 1.39302
828 1 1 16.2255 3.99658 4.35722 2.66376
982 1 1 18.4135 3.74544 3.19625 0.0632981
1041 1 1 17.2319 3.11803 2.67402 3.48037
47 1 1 18.8087 4.50532 3.9947 0.0164482
1659 1 1 0.350703 3.8417 5.57209 2.41291
15 1 1 1.19076 5.00346 4.36994 1.48531
548 1 1 2.32748 6.28109 6.17474 1.22384
7924 1 1 3.416 4.27992 5.02816 0.339811
125 1 1 6.45663 5.08782 2.80029 2.20626
1723 1 1 5.58246 5.46311 2.14891 1.83262
98 1 1 7.55143 5.8181 3.66785 0.110242
2318 1 1 8.5138 6.49096 4.14463 2.59568
796 1 1 10.0794 5.32938 3.53667 1.71745
6136 1 1 8.21882 3.63765 3.2524 2.44915
7666 1 1 10.4542 4.30223 3.73531 2.34813
183 1 1 9.55282 4.71169 2.69787 0.471392
1203 1 1 13.6975 4.88041 4.42897 2.55976
2017 1 1 13.9651 6.14497 3.26211 2.20063
7273 1 1 15.7478 4.53138 1.91808 0.566561
7998 1 1 16.1032 4.68986 2.99967 1.3055
75 1 1 17.6857 3.97356 4.27466 0.441647
6396 1 1 0.183052 6.0575 3.5383 0.467838
1002 1 1 1.91415 5.4711 3.41797 0.526888
6848 1 1 2.39959 7.62621 2.58293 1.9884
1883 1 1 3.40785 5.80357 3.42703 0.38552
7879 1 1 5.37569 5.55123 3.80527 0.909114
1717 1 1 5.17993 6.97844 4.70434 0.192873
6767 1 1 5.47703 6.81939 3.25287 0.243672
1864 1 1 4.75043 7.9251 3.67357 3.33024
131 1 1 7.00517 7.06596 3.99901 2.51965
188 1 1 8.18005 6.65438 3.08605 4.86019
1217 1 1 7.64135 6.36638 4.91241 0.214558
7782 1 1 8.6689 7.07683 4.8886 1.56216
564 1 1 10.9829 5.9791 3.08998 4.27128
6538 1 1 11.3615 7.20372 3.9844 2.75578
1927 1 1 11.5673 5.10864 3.63242 2.84151
1051 1 1 14.5606 7.16779 3.36266 2.86505
7611 1 1 14.6408 7.46898 4.69001 1.26185
285 1 1 15.1555 6.46873 3.95557 3.33945
5812 1 1 15.3556 3.73593 2.52373 1.12204
108 1 1 16.0077 5.98124 3.38398 1.61657
602 1 1 15.9879 6.29364 4.61901 0.629217
1338 1 1 17.1992 6.67258 3.55512 0.703806
928 1 1 0.225431 7.32298 4.0438 1.00968
1399 1 1 0.594903 6.90486 2.90235 0.468392
2747 1 1 1.14923 7.62902 3.88955 2.35958
996 1 1 2.44151 9.59086 3.91378 0.451589
357 1 1 3.25649 8.68557 4.08876 0.150565
626 1 1 4.51392 8.79969 4.37415 0.649873
983 1 1 3.86134 8.30699 3.24235 0.571924
568 1 1 7.00855 7.3898 2.54335 2.00636
344 1 1 7.28855 8.24396 3.86651 1.90471
2980 1 1 8.10415 8.10146 2.86956 0.567446
7322 1 1 9.14288 6.81448 3.49078 2.46908
1784 1 1 9.42982 7.40853 4.27587 1.33901
648 1 1 12.0362 7.83119 3.63689 1.15243
738 1 1 13.3168 8.63394 2.41951 0.325586
1802 1 1 12.4193 9.17749 3.12539 0.463384
1513 1 1 14.4305 8.37928 4.16285 0.129114
596 1 1 14.455 9.27361 3.58526 0.16863
235 1 1 16.1652 7.10799 3.43428 1.59074
240 1 1 17.2175 8.24088 4.10667 2.92482
6875 1 1 0.0297751 8.18967 2.61265 0.325569
2798 1 1 1.29903 9.83646 3.70892 2.43156
134 1 1 1.22678 9.46898 4.64139 0.321063
440 1 1 3.06794 10.5907 4.52769 7.10092
1417 1 1 5.30345 9.46153 4.63229 1.41992
1001 1 1 6.42328 9.94483 2.91453 1.1201
604 1 1 6.32843 8.62948 3.08726 1.34533
1211 1 1 7.30349 9.79407 3.61763 0.582174
95 1 1 8.87105 9.41831 3.26334 0.0430832
345 1 1 9.49191 8.7908 3.64364 1.74326
1460 1 1 11.7117 8.97421 2.3718 2.10167
7867 1 1 13.3081 9.73828 3.10739 3.6602
241 1 1 12.3144 9.54073 4.21107 1.14439
1250 1 1 14.2875 9.39667 2.3436 0.178568
2587 1 1 13.446 8.51175 4.19412 0.0686562
790 1 1 15.6593 10.0416 2.92277 3.14714
7470 1 1 13.9662 9.43436 4.4639 1.09509
6561 1 1 16.6438 9.35125 3.85165 0.592436
7432 1 1 0.555004 9.15753 2.71656 0.205033
1113 1 1 17.745 8.99548 4.73553 1.56802
863 1 1 0.216297 9.90475 4.83128 0.364519
7721 1 1 3.46363 10.1411 3.64942 1.81906
1093 1 1 1.71058 12.5736 3.03471 1.59296
7474 1 1 2.12147 12.6497 4.63647 1.23027
399 1 1 2.77109 11.3253 3.53276 0.294599
2882 1 1 4.6348 10.1492 3.47594 0.21195
970 1 1 3.99745 11.4575 4.1019 4.08922
7862 1 1 4.11546 10.957 3.19392 2.04454
2265 1 1 6.41856 9.59655 4.3366 0.0861936
1727 1 1 7.59077 11.8695 2.58894 2.85213
478 1 1 7.13965 10.7668 3.14833 1.87869
825 1 1 9.46192 11.038 3.74589 4.49122
1296 1 1 9.48683 9.80054 3.99569 0.975115
7573 1 1 10.6976 9.88316 2.75611 0.622391
378 1 1 13.0836 11.6334 2.58325 0.624341
1332 1 1 11.5019 9.61668 3.47015 1.25354
1438 1 1 12.9389 10.6536 3.9948 1.81974
7979 1 1 13.4709 10.9041 4.93702 1.88233
1189 1 1 13.5189 11.6926 4.33939 2.06971
1072 1 1 14.4112 10.5526 3.25179 0.35189
1143 1 1 15.0636 10.8859 2.53226 1.99595
1728 1 1 17.8795 10.1208 3.38414 1.11953
622 1 1 0.137795 9.85836 3.60318 0.326359
1280 1 1 18.4533 12.3194 3.60838 1.59753
1895 1 1 3.89732 14.5055 3.78775 2.10767
7863 1 1 1.34615 13.5651 5.54776 0.281514
800 1 1 2.72501 13.982 4.20603 2.44753
7011 1 1 2.74909 12.9449 3.94404 6.60158
1178 1 1 5.57367 11.2753 4.86519 0.448884
1163 1 1 3.52926 12.2903 4.68407 4.14005
1448 1 1 6.31243 12.8192 3.80211 0.936028
699 1 1 7.31775 12.715 3.49309 2.59967
163 1 1 8.67238 13.889 2.81278 1.39088
1226 1 1 8.7755 12.0456 3.935 0.287923
823 1 1 10.1067 12.0558 2.36993 0.66805
1504 1 1 9.45611 12.7368 4.31987 3.42788
7138 1 1 13.7057 11.2218 3.59092 0.051857
1799 1 1 12.6374 13.1091 3.35979 0.276849
991 1 1 14.7635 11.845 3.29324 0.91812
303 1 1 14.5464 11.9101 4.33421 0.753369
302 1 1 13.7896 13.0379 4.00796 4.24362
6563 1 1 16.3719 11.5502 3.28866 2.45865
1079 1 1 18.2112 13.2521 3.16348 2.50746
918 1 1 18.1923 13.0403 4.69414 3.1369
7754 1 1 18.7017 14.0659 5.58116 2.26511
642 1 1 0.539005 13.7533 3.8525 1.93968
7051 1 1 2.79266 14.1855 2.87475 1.04263
7515 1 1 1.79707 13.9068 3.84336 3.80379
6531 1 1 4.74831 14.9126 4.59078 0.353971
6536 1 1 5.23387 13.1803 3.90234 1.09026
7210 1 1 4.04548 13.2834 3.23245 0.416166
7139 1 1 8.1035 12.6357 4.5621 2.06999
221 1 1 8.45622 14.6944 4.20994 1.4706
1848 1 1 10.614 13.4991 3.50703 2.84573
284 1 1 10.8843 15.0774 3.66072 3.1437
64 1 1 10.4816 12.5065 3.4508 1.08336
1100 1 1 11.8707 13.2954 4.83053 2.45458
7705 1 1 12.3193 12.7517 2.06485 1.53578