ITEM: TIMESTEP
3600
ITEM: NUMBER OF ATOMS
8000
ITEM: BOX BOUNDS pp pp pp
0.0000000000000000e+00 1.8820720577620570e+01
0.0000000000000000e+00 1.8820720577620570e+01
0.0000000000000000e+00 3.7641441155241139e+01
ITEM: ATOMS id mass type x y z v_temp
7951 1 1 0.588351 0.42697 1.11919 5.99396
328 1 1 0.891985 2.22584 0.834457 1.96118
1739 1 1 2.48519 0.964197 35.6514 0.764296
1573 1 1 4.42543 1.21328 0.560059 2.03438
1198 1 1 3.72995 2.60242 1.43095 2.54968
7166 1 1 7.31486 0.952346 37.3989 1.87064
7300 1 1 4.56772 18.4645 0.890648 1.87497
1328 1 1 7.16563 0.972775 0.9006 0.958964
1446 1 1 8.98931 18.818 0.498012 4.97739
1140 1 1 10.4995 18.3387 0.856286 3.36575
56 1 1 6.5225 2.99996 0.399466 2.40516
6855 1 1 10.1106 18.1773 37.0271 0.167534
7149 1 1 11.4625 18.2369 0.569873 2.61257
887 1 1 10.4847 17.1752 35.6332 1.67602
7745 1 1 12.1809 0.264192 34.9898 0.807877
801 1 1 12.2489 18.817 36.0117 0.435603
1479 1 1 16.0556 0.427641 0.356987 2.40272
7301 1 1 14.0523 18.3305 0.493299 5.08125
1511 1 1 17.19 0.528259 1.46398 0.762761
6839 1 1 16.9892 0.966368 36.8391 3.15285
1672 1 1 17.1123 1.56902 1.93481 0.418715
7088 1 1 18.5926 18.3286 37.3692 0.462575
1380 1 1 18.5616 1.04255 37.0668 0.438702
7930 1 1 2.92653 18.6265 36.2979 1.24956
508 1 1 0.4069 3.222 1.12522 1.2674
2026 1 1 4.1067 1.03949 1.82161 0.23919
1279 1 1 4.14466 3.59954 0.91554 4.2103
6494 1 1 5.10773 1.83432 37.2901 1.03961
7604 1 1 5.73659 2.94106 1.02106 1.81158
1266 1 1 6.74384 2.1016 1.47233 1.20454
324 1 1 5.20001 3.63075 1.73724 2.82889
7751 1 1 6.7757 3.30896 1.47895 1.20102
7564 1 1 8.71224 4.12514 0.844975 0.84732
7653 1 1 6.83057 2.49403 36.798 1.3474
6866 1 1 7.65239 2.55339 1.49187 0.419017
775 1 1 11.8714 0.626024 36.9278 0.510235
7283 1 1 9.37112 3.79397 36.4839 0.306033
3337 1 1 12.298 0.842542 0.17375 0.429812
446 1 1 11.3017 3.24579 37.6212 2.01761
350 1 1 13.6288 0.691024 37.5497 3.50794
6850 1 1 11.9196 2.4631 36.6489 2.10533
1183 1 1 16.073 2.39115 1.01376 1.29739
1020 1 1 16.5928 4.3998 0.904282 2.31679
6845 1 1 17.2005 2.25733 1.0752 0.420928
7202 1 1 18.0369 3.26994 2.17697 0.88266
1045 1 1 2.12584 4.46282 2.25408 1.96462
1713 1 1 1.57029 2.02207 0.0990534 2.1646
6006 1 1 2.81493 2.88298 1.19365 1.90889
7697 1 1 1.87477 2.01723 1.62961 1.66327
406 1 1 3.8388 4.48961 0.91112 3.54218
7612 1 1 7.06338 5.86624 1.67681 1.06546
1333 1 1 9.21815 4.16691 37.3983 0.195309
7625 1 1 8.37328 3.51425 1.73606 0.659394
437 1 1 11.2736 1.3946 37.1525 5.92924
7032 1 1 10.0741 2.17434 1.75556 1.83184
7392 1 1 14.9229 3.78833 0.403185 1.56443
5355 1 1 0.884515 4.2703 2.54577 5.94551
853 1 1 15.8516 5.04779 0.466844 1.23959
7595 1 1 17.8283 4.58099 1.82028 1.05736
1037 1 1 0.443846 5.87202 0.577739 1.77531
6423 1 1 17.4811 3.75847 0.818751 0.829543
6875 1 1 17.472 4.76219 36.1809 0.797875
6987 1 1 2.48378 5.40616 1.77413 2.9883
366 1 1 2.52768 4.11938 35.9259 3.90545
7718 1 1 3.22812 3.70313 1.48703 1.93809
6083 1 1 5.43378 4.73074 2.18381 0.467064
1310 1 1 2.48042 6.00974 3.07041 0.597304
1723 1 1 6.32129 3.91184 35.776 2.34944
135 1 1 5.49835 7.72116 36.4866 0.764424
5799 1 1 8.86997 4.571 2.98773 2.57647
217 1 1 6.1337 6.58225 3.89189 0.907152
2244 1 1 11.2666 3.52593 1.4283 0.613585
6581 1 1 8.39213 2.01708 2.14806 1.06864
7450 1 1 11.8923 4.90922 0.25872 2.84036
7155 1 1 13.5885 2.87769 1.36934 0.499269
6551 1 1 10.1641 0.96459 0.592341 1.62813
7544 1 1 13.6625 4.77728 0.578001 0.686898
1377 1 1 14.4166 4.55141 1.84221 2.30375
223 1 1 16.2788 6.03514 1.46249 0.809873
7273 1 1 14.7836 4.89009 0.606278 0.753431
877 1 1 18.264 4.06999 35.8853 2.65306
645 1 1 17.8197 7.41559 1.80848 1.13739
1427 1 1 0.884437 4.42472 37.4437 3.36141
1562 1 1 2.7362 5.83881 0.85256 0.592486
573 1 1 18.2339 6.98562 37.5428 0.264842
7956 1 1 5.23363 3.54293 0.293138 0.706096
6152 1 1 3.35445 3.79497 0.249752 1.33367
1224 1 1 9.38236 6.81556 0.635033 2.38156
1381 1 1 10.2736 4.55942 2.8042 1.35409
354 1 1 9.49704 3.83316 1.47088 2.23853
6996 1 1 9.72811 5.33723 3.25862 2.59944
7408 1 1 10.5426 5.13052 0.356192 3.54353
7466 1 1 11.9172 5.64864 2.75515 1.39162
973 1 1 11.9801 6.19705 1.66037 0.554452
6949 1 1 11.4132 7.08725 1.59824 0.751985
1664 1 1 12.1842 6.77322 0.313937 1.47433
6997 1 1 12.4171 5.89704 37.3585 0.494051
6470 1 1 11.7489 4.26888 1.11572 0.332203
675 1 1 13.5078 7.83977 2.49959 2.81322
6044 1 1 13.918 5.33911 2.46863 0.642405
140 1 1 14.9784 7.7098 3.61759 0.851487
276 1 1 12.9018 6.80111 1.40011 1.39865
1537 1 1 15.4543 7.04668 1.93594 1.77415
371 1 1 15.8499 6.27903 36.2988 0.346387
7659 1 1 17.7124 6.12014 3.46475 0.68341
3092 1 1 15.0381 6.57726 37.0101 0.461466
1757 1 1 17.0003 7.60331 3.31763 0.395547
7397 1 1 0.5881 8.52297 1.07444 4.09078
1360 1 1 0.203497 8.94494 2.12169 1.46558
7942 1 1 2.49377 7.98141 37.0177 1.24406
86 1 1 3.305 7.54738 37.4276 0.344427
6578 1 1 4.77575 9.38399 1.96701 1.75892
6767 1 1 2.79133 9.86578 1.0592 1.56199
1415 1 1 4.81019 8.45575 0.320612 2.72004
6874 1 1 9.5179 8.24194 1.38863 2.50996
6933 1 1 9.13149 9.54123 1.27799 2.72205
7573 1 1 10.4985 6.94902 0.862815 0.970828
5690 1 1 13.034 8.90042 0.62808 1.11846
610 1 1 10.9866 9.25765 1.09408 4.80456
5857 1 1 18.1758 8.83589 1.08608 1.01696
1399 1 1 18.7817 9.73126 0.755375 4.74165
5649 1 1 2.27905 9.0936 3.8219 4.28481
7026 1 1 3.09757 10.0249 3.36738 0.678308
158 1 1 4.83031 8.51558 3.05274 1.96172
930 1 1 4.94381 11.3201 37.0898 0.320334
7065 1 1 6.38314 10.0818 1.71522 5.20196
7731 1 1 5.10729 9.93144 1.25086 0.836937
429 1 1 8.32154 8.28017 0.281451 0.46392
7002 1 1 8.54251 8.98633 2.15294 0.857831
154 1 1 8.3673 10.3529 2.08182 1.73697
1296 1 1 10.4743 8.4036 37.4547 1.23948
7943 1 1 12.5585 9.67558 0.119517 1.97704
232 1 1 14.8901 10.005 36.3998 0.276455
1193 1 1 14.1895 8.85605 1.43536 2.10951
7021 1 1 14.5981 8.28197 0.0828783 1.31284
1120 1 1 14.2492 9.91469 1.92135 0.136684
7548 1 1 15.4047 8.77233 0.766284 0.812246
7800 1 1 17.3519 9.46709 37.424 0.625844
3472 1 1 16.8944 9.80314 2.0562 2.37668
219 1 1 16.2235 8.98997 36.9153 2.07333
7967 1 1 2.02827 9.91965 2.70625 1.49257
1349 1 1 2.20375 11.0406 3.04723 0.377102
7729 1 1 0.811049 12.7537 2.2568 3.07548
7047 1 1 2.28801 12.7422 1.38358 2.50383
48 1 1 5.29153 10.114 5.15904 1.39031
228 1 1 3.21418 10.924 0.000614921 1.94498
1547 1 1 6.69615 10.0871 4.93819 0.537371
1790 1 1 7.48244 8.1357 2.62288 1.85632
238 1 1 8.87862 10.5659 1.0052 0.509905
678 1 1 7.36723 12.2332 37.1913 2.14089
1385 1 1 9.501 11.9014 0.973235 1.68594
64 1 1 7.38371 12.7329 0.426849 1.80304
229 1 1 10.3526 10.4126 36.5375 1.76275
969 1 1 15.4009 11.1831 2.80685 0.605534
1997 1 1 13.3532 12.1859 0.759971 0.707483
7512 1 1 15.1116 11.8155 0.0420568 1.2209
627 1 1 15.854 10.2606 0.831971 0.696958
736 1 1 18.5064 11.393 0.566314 0.325304
7805 1 1 15.4514 14.6622 35.9062 1.20907
549 1 1 1.76113 15.6797 2.4522 3.38527
1971 1 1 3.05368 13.17 0.708762 2.31414
7621 1 1 2.98019 13.366 3.24329 0.62216
452 1 1 3.34016 11.0989 3.05464 0.772811
1046 1 1 6.54865 14.8297 0.0233132 1.18876
23 1 1 3.80708 13.2028 36.7204 6.53165
6253 1 1 7.6981 9.17957 1.00669 3.30149
6723 1 1 11.1564 13.1603 0.863103 1.34826
423 1 1 13.9604 12.1878 1.81696 0.609791
296 1 1 16.8863 13.3447 37.0404 0.921124
7282 1 1 14.5942 14.117 37.0808 4.3882
962 1 1 0.91566 11.1387 0.492733 1.20868
6183 1 1 0.872231 13.1885 0.0108799 0.684977
6411 1 1 1.65118 12.1573 0.180349 7.31277
7060 1 1 3.12746 14.2109 0.232832 2.37713
6898 1 1 4.33537 12.5207 0.148802 2.09442
6379 1 1 5.92221 13.6691 0.850819 1.79695
7035 1 1 7.50543 15.3201 1.83174 1.27592
7457 1 1 4.61237 14.1883 37.3652 0.349802
378 1 1 11.0442 15.0123 2.36015 1.53022
5866 1 1 7.96812 14.3962 37.4747 0.5284
7620 1 1 14.0249 14.3179 0.556118 0.163422
708 1 1 13.3309 10.949 0.267624 0.910592
7955 1 1 12.2877 13.519 0.920303 4.02961
1567 1 1 16.3016 12.4225 36.8753 1.14726
7338 1 1 17.9848 13.9157 1.06462 3.69393
336 1 1 16.1955 14.5181 1.13165 1.63948
7261 1 1 0.227485 15.8507 1.5861 1.79125
918 1 1 0.417632 14.3406 1.42739 1.20941
7845 1 1 3.76003 15.8236 35.2377 0.4242
7405 1 1 5.65382 16.3522 0.757971 1.40545
1995 1 1 7.39377 15.6555 2.7746 0.142313
1561 1 1 4.89722 15.5823 37.2909 0.502727
37 1 1 8.33628 14.6274 1.92986 3.1168
6399 1 1 8.54359 14.9659 0.671696 2.66418
961 1 1 8.71902 16.7409 1.75133 4.83201
7950 1 1 12.1328 15.1115 2.82027 1.98088
1144 1 1 10.6245 14.8205 35.7273 0.376761
511 1 1 12.3369 14.2114 0.102394 1.22336
6032 1 1 12.4109 16.4725 36.2623 0.704774
7163 1 1 12.576 16.8231 0.328291 0.24711
820 1 1 12.9093 15.7918 37.1534 1.39299
629 1 1 15.3113 14.4376 1.40978 0.503256
1529 1 1 14.6357 15.2456 2.08174 1.35892
375 1 1 16.6849 13.1229 0.520097 1.46301
7757 1 1 16.7048 14.5068 0.0941855 0.815357
7672 1 1 0.878489 16.6188 37.0746 0.693398
1170 1 1 18.0897 15.0627 1.36832 0.120468
757 1 1 0.960968 16.3254 35.9666 1.33918
2476 1 1 1.9502 16.0116 0.52788 1.36195
1984 1 1 0.424492 15.2651 0.75163 0.656968
1136 1 1 1.89058 16.8166 1.3356 1.86667
7248 1 1 3.02094 16.1372 0.472634 0.467683
7530 1 1 7.42185 16.6388 2.04622 3.3358
569 1 1 6.00723 15.4801 1.53216 1.10096
7899 1 1 7.94534 16.1903 36.4752 0.510758
7736 1 1 8.79725 16.2198 0.309158 0.0324555
6673 1 1 10.5177 15.8992 37.501 1.409
1103 1 1 12.1202 15.014 37.0763 1.13521
7680 1 1 13.8103 16.6768 37.353 0.293189
2106 1 1 11.3105 15.0143 1.46244 0.330033
472 1 1 14.0794 17.4148 1.8444 0.268702
2109 1 1 15.077 17.4873 1.14286 0.203672
579 1 1 16.8994 16.9895 0.0306982 1.2777
1042 1 1 18.3522 16.2348 0.573601 2.39074
2662 1 1 1.01265 17.8439 36.1558 0.797624
668 1 1 1.00002 18.0854 0.616087 1.51914
1469 1 1 3.79374 0.45132 0.742133 0.613117
7773 1 1 4.58116 1.95937 1.35002 4.4833
175 1 1 5.79476 1.77494 1.23282 0.890957
895 1 1 9.74387 17.588 0.501065 0.625931
1993 1 1 10.7119 17.3696 0.154979 1.49172
7753 1 1 8.80703 17.9904 37.0439 0.109521
7568 1 1 13.0821 17.9202 0.011407 1.04119
1308 1 1 14.6026 17.4483 36.9457 1.36561
788 1 1 16.1657 16.2184 35.8151 0.824512
7529 1 1 16.9832 18.3154 0.84372 0.13288
1315 1 1 17.7291 17.8447 36.7843 2.96177
7434 1 1 17.5887 17.7841 1.5143 0.821892
910 1 1 1.13155 17.8762 2.49507 1.81557
206 1 1 2.54413 0.541268 3.27013 1.97966
608 1 1 2.54006 2.94301 3.80974 2.2616
692 1 1 3.49818 2.32721 4.6488 0.570328
7818 1 1 8.65725 0.610204 2.29015 3.37692
6079 1 1 6.28752 18.2738 0.961575 1.29991
55 1 1 10.0957 17.9754 1.91185 5.50767
2103 1 1 9.16023 0.938727 0.900469 1.4659
343 1 1 10.8723 17.5256 3.01082 1.06712
515 1 1 12.9342 0.00312655 37.2302 1.37011
94 1 1 11.5373 0.69052 1.71836 1.6626
6659 1 1 11.2456 1.75227 1.32046 3.53888
2348 1 1 14.2289 0.934183 1.00171 0.402551
409 1 1 14.6785 1.55746 0.443022 2.44623
7340 1 1 11.9746 18.2769 1.69936 1.88708
281 1 1 13.3592 0.114607 1.11385 0.505556
822 1 1 14.5227 1.47245 2.87015 0.423527
430 1 1 14.9734 3.54969 2.75337 0.698135
1928 1 1 15.1025 1.72341 1.8956 5.41494
807 1 1 16.6956 17.7183 5.32939 4.07665
351 1 1 17.6884 17.5898 0.427802 2.20756
1607 1 1 17.6713 0.341321 2.63385 0.596113
149 1 1 18.6128 2.03131 1.64103 6.74506
965 1 1 18.0878 2.68303 3.56946 2.51553
2044 1 1 4.26069 3.89046 2.2374 1.34246
1654 1 1 1.35754 1.63323 2.61264 2.7383
104 1 1 3.69856 1.70741 2.68822 0.945026
915 1 1 6.21409 3.32207 2.91147 3.13083
6040 1 1 8.03065 1.25908 1.59768 2.04446
454 1 1 9.90409 2.75335 37.5014 3.06615
726 1 1 11.2805 2.51723 2.00215 8.1751
1270 1 1 12.3725 2.40364 2.36481 1.42496
6241 1 1 12.3454 2.48876 1.0611 1.34352
828 1 1 13.5574 1.9926 0.687784 2.05422
7440 1 1 16.3583 3.17023 37.6414 1.2675
7028 1 1 12.4934 0.976948 3.74204 4.29414
552 1 1 16.9834 5.15468 1.59254 0.581004
1591 1 1 16.8221 3.00873 1.89772 3.70389
914 1 1 18.5095 3.3124 4.16669 1.04916
7633 1 1 16.6818 4.29287 1.99116 2.46138
383 1 1 0.583177 3.80672 3.50149 0.915328
643 1 1 2.57269 2.82348 2.54695 1.12909
115 1 1 1.52702 3.09159 2.78303 0.56811
7660 1 1 1.79671 3.27311 0.941002 1.29458
489 1 1 4.02092 4.9285 2.28082 0.413334
1322 1 1 4.54531 2.90273 1.96071 2.68452
7879 1 1 5.3185 5.8141 2.92656 2.88674
1237 1 1 8.67527 5.3843 1.15194 3.94582
1850 1 1 6.12962 5.45313 2.13786 3.72385
188 1 1 6.858 5.2057 4.24173 0.636911
7861 1 1 8.31085 4.13073 3.69406 0.399531
6922 1 1 8.86983 2.68427 3.70547 0.776214
580 1 1 6.55055 4.61651 2.43398 0.579821
183 1 1 10.9448 1.9186 3.9768 0.857189
593 1 1 9.27937 2.91566 1.88481 0.727576
7468 1 1 12.4012 3.5445 1.77893 1.57831
2139 1 1 12.3176 4.95622 2.01269 1.92808
1213 1 1 16.2055 4.51194 3.00646 2.57295
1203 1 1 15.8336 4.78452 1.86904 0.51011
982 1 1 0.104342 4.27904 1.79868 0.134861
1409 1 1 0.949382 7.46938 1.67551 1.69905
7938 1 1 3.99298 3.34884 37.2995 3.42243
1338 1 1 3.32053 6.482 5.65268 0.38699
936 1 1 2.76618 1.1945 2.42978 0.0600093
6605 1 1 5.14668 4.72068 1.10902 0.998599
2318 1 1 5.27699 4.90058 4.93239 1.36922
6216 1 1 5.50446 6.72637 0.207572 0.261917
125 1 1 8.50828 2.96187 2.75852 0.885792
61 1 1 10.4629 3.15618 4.8858 3.03856
6566 1 1 8.04454 5.16117 3.94718 0.605386
164 1 1 10.3038 2.33218 2.82955 1.7571
7348 1 1 12.5591 4.62422 5.74392 0.228816
285 1 1 11.3366 5.07948 1.78814 0.690804
5812 1 1 12.9147 7.92593 1.23838 1.073
651 1 1 16.3164 6.05608 3.33055 0.522498
7358 1 1 17.9823 6.3807 2.0804 0.250566
602 1 1 17.4317 5.72264 0.758312 1.91422
1715 1 1 1.05797 6.52632 2.34156 0.86747
137 1 1 17.3468 4.69303 37.2405 2.39814
314 1 1 0.740245 5.16921 1.68534 0.440152
72 1 1 1.41297 5.55816 2.39626 1.59009
802 1 1 1.02563 7.35385 4.02115 1.76958
6561 1 1 0.720161 6.26856 37.1698 0.432387
305 1 1 0.0622159 8.25987 5.87842 2.09247
7944 1 1 2.16986 7.30224 2.05874 0.356989
7803 1 1 1.53324 6.10346 1.44751 1.79618
1864 1 1 1.59438 5.64375 4.3115 1.64102
6971 1 1 5.59389 7.83365 2.92465 1.76556
190 1 1 1.66591 5.54206 0.0324065 2.75327
7387 1 1 8.79923 6.06065 3.7514 0.85029
1781 1 1 9.57343 3.41687 3.04863 1.10573
7094 1 1 11.3111 4.94593 3.00066 0.42069
564 1 1 9.69821 5.09161 0.98402 2.63168
1450 1 1 12.346 4.93158 3.86477 5.2681
7719 1 1 11.9233 4.12837 2.92124 1.25218
550 1 1 14.8485 7.85637 2.51707 0.763931
108 1 1 11.0416 3.85075 2.45833 0.779521
271 1 1 13.7998 6.43652 2.95823 6.17592
486 1 1 13.0084 7.06041 3.67105 1.59921
956 1 1 15.3415 6.01009 3.70332 1.00113
235 1 1 16.1734 5.16808 3.84917 1.50836
6719 1 1 18.6499 4.96198 2.93646 1.47646
6196 1 1 1.62017 8.28399 3.08833 0.24135
1596 1 1 2.20695 8.39892 2.23801 1.75509
7308 1 1 3.23282 7.02402 0.805482 1.95127
7854 1 1 4.66087 9.34567 4.59591 1.2496
1917 1 1 4.25771 9.88128 2.92751 1.71862
7326 1 1 3.78123 8.02239 2.42937 0.113725
1681 1 1 5.76484 8.63161 1.64024 0.686085
7721 1 1 6.67687 8.92021 3.32095 0.947819
7482 1 1 8.06363 6.9062 37.401 3.59391
568 1 1 8.61201 8.58426 2.94372 3.69197
1273 1 1 7.16893 6.94884 1.42384 2.88331
7643 1 1 10.6225 9.72208 2.45031 2.87097
277 1 1 9.40564 6.89264 2.26718 1.70702
825 1 1 12.4217 8.8346 1.90788 0.883194
543 1 1 13.3111 9.45691 1.84599 0.221801
7945 1 1 13.8257 9.60688 37.3531 0.597433
790 1 1 15.6415 8.24707 4.19264 0.868663
6159 1 1 18.4117 5.78526 4.62111 4.64454
913 1 1 17.9571 7.07964 3.83174 1.46094
669 1 1 16.5193 8.61114 1.76452 0.968854
79 1 1 15.025 7.71059 1.07314 1.73373
926 1 1 0.0583833 6.41432 3.35473 2.96929
205 1 1 0.839314 7.42723 2.72004 2.78268
7717 1 1 0.994202 10.8874 3.71002 1.88021
773 1 1 2.88544 11.3074 5.69016 1.16477
2504 1 1 1.47087 9.15177 5.87059 0.671079
8000 1 1 6.02723 8.66386 4.17582 0.275793
1863 1 1 5.95532 9.07577 0.650153 0.417476
357 1 1 4.15075 9.39392 0.663724 1.51306
529 1 1 5.16556 9.80496 3.84672 4.86093
615 1 1 5.93524 6.42884 1.97467 1.48615
7335 1 1 9.55813 9.32527 2.6555 0.955696
1001 1 1 10.1177 9.11939 1.75674 1.67929
2814 1 1 9.27935 9.08848 35.6626 0.786937
7004 1 1 12.6738 10.5731 2.08543 0.376598
738 1 1 11.8293 10.0738 2.31147 4.71726
1906 1 1 12.732 11.6967 1.38773 2.37535
374 1 1 12.2306 9.22584 3.17123 1.79098
7913 1 1 14.2367 7.1335 0.0451198 2.34479
596 1 1 17.1358 10.88 2.45914 0.892471
7432 1 1 16.2729 9.43698 3.75989 0.126773
7488 1 1 14.7019 9.59951 0.691766 0.890121
6675 1 1 18.3792 8.3921 2.81564 0.666515
7966 1 1 0.65047 9.13604 3.41043 0.408111
634 1 1 0.201726 10.4813 2.51689 1.15807
7056 1 1 2.87405 9.37263 4.71776 1.91445
6232 1 1 3.64728 10.6937 4.05444 2.10679
146 1 1 5.54821 12.5068 4.45586 0.405861
6584 1 1 5.61602 10.7085 1.57266 1.24211
1226 1 1 7.87909 11.2089 1.5585 0.191599
823 1 1 10.0841 10.8625 1.35491 3.74579
955 1 1 12.0816 7.73538 2.20147 5.88647
699 1 1 7.38399 11.9928 3.40032 1.58942
342 1 1 8.71146 12.8551 2.19412 2.87892
574 1 1 9.49349 10.6368 37.4477 2.2695
386 1 1 12.4511 13.1196 37.3842 2.29812
818 1 1 14.7516 10.9498 1.7731 2.15774
2453 1 1 13.763 10.3936 2.86066 0.751291
2353 1 1 16.4175 14.2002 3.46693 1.6919
600 1 1 15.4586 9.89672 2.12656 4.21026
7888 1 1 15.1694 10.7596 0.156061 1.20465
1079 1 1 18.0379 9.6082 3.69573 2.7541
750 1 1 0.94758 9.97643 0.919255 4.84169
7128 1 1 17.3778 10.6713 1.29806 0.361903
7851 1 1 18.2882 11.52 3.65949 0.136017
1528 1 1 3.1011 12.8769 2.11541 2.75154
1006 1 1 4.48137 11.2869 3.25431 2.18059
704 1 1 5.31524 12.2344 1.63739 2.79732
7755 1 1 3.18672 11.7894 1.89186 1.69029
563 1 1 4.62992 10.9604 2.05855 1.68674
163 1 1 6.36102 12.75 0.894406 0.179441
7704 1 1 9.20865 13.8859 1.92595 1.27715
416 1 1 10.686 11.74 1.58245 2.73468
7266 1 1 10.27 12.7217 1.23215 0.737548
976 1 1 12.9622 11.3704 2.95857 2.43642
1189 1 1 14.5968 11.744 2.63592 2.98592
7138 1 1 15.9453 13.4626 1.6101 0.818086
7999 1 1 16.1487 12.8909 2.49362 3.52774
1143 1 1 16.7544 12.5672 3.72413 0.310572
303 1 1 16.8186 13.4733 4.13937 0.257892
991 1 1 17.4953 12.0317 1.05963 1.07533
7772 1 1 0.685065 13.8868 2.36311 1.6469
559 1 1 2.26083 13.1331 3.90847 0.987751
4804 1 1 3.80138 14.2134 2.08266 0.845635
6464 1 1 1.4671 13.8363 1.65706 0.741809
1448 1 1 4.73133 13.879 2.39545 0.014426
7217 1 1 4.38026 15.7028 2.73571 0.538793
7489 1 1 5.78944 14.0907 2.33739 1.12178
1210 1 1 7.14506 12.8947 1.78253 1.36664
7961 1 1 5.70549 12.9802 2.21612 1.85146
769 1 1 7.89314 13.7656 0.757661 1.43755
1432 1 1 11.7491 14.4808 4.12307 9.525
2347 1 1 8.26468 12.059 1.05513 0.658043
7705 1 1 11.498 14.2408 0.6927 4.35166
6872 1 1 12.5705 14.9085 0.735072 5.14449
209 1 1 14.2934 14.2622 1.70442 1.67291
1406 1 1 16.2555 14.3349 2.35477 1.953
1077 1 1 14.9863 14.2132 2.72082 1.93632
255 1 1 17.4072 14.5207 2.73329 0.365331
1910 1 1 1.00175 14.3869 0.464047 0.0504823
1999 1 1 18.5724 17.9667 1.24682 0.0968345
7404 1 1 3.89147 14.8368 1.3888 2.11763
1729 1 1 7.96255 16.7943 1.05328 1.15009
687 1 1 6.20025 15.0628 2.58087 1.38217
239 1 1 9.44495 14.983 1.94528 0.777104
89 1 1 10.2994 15.9959 3.24036 1.09146
640 1 1 9.98322 14.11 2.80483 0.997573
2373 1 1 13.1323 16.1457 1.07251 0.073368
1439 1 1 13.6992 15.9466 4.07944 0.774099
7052 1 1 13.8895 15.5324 36.7315 2.45054
7444 1 1 13.6148 13.9975 2.87859 0.958631
7545 1 1 13.2681 14.7493 37.2224 2.30267
234 1 1 2.06255 13.0212 2.7658 0.254149
6824 1 1 17.2742 16.662 3.30859 0.701403
1590 1 1 17.4331 14.8744 36.7546 6.71028
954 1 1 0.582781 17.1899 3.04621 0.544401
1282 1 1 2.48032 17.1908 3.03075 0.423334
785 1 1 3.57073 15.9367 1.49764 0.58564
1634 1 1 1.98029 17.5012 2.00056 2.88156
1245 1 1 2.79943 16.7764 2.2039 0.524705
7957 1 1 4.14563 16.9063 1.1456 0.0952137
7303 1 1 5.12568 18.5329 1.93699 1.58195
1337 1 1 6.09588 16.3164 2.08845 2.16663
381 1 1 10.3987 17.0966 4.25429 0.284205
1453 1 1 10.1359 16.9506 1.99414 0.625245
2224 1 1 11.6803 17.1016 0.705753 3.98076
841 1 1 10.4639 15.0169 0.804401 0.175444
6582 1 1 10.7421 16.1078 0.818966 2.08751
809 1 1 11.6537 16.2849 1.16753 1.54692
948 1 1 11.5334 15.6016 0.430269 1.55273
1186 1 1 14.0115 15.8148 0.224807 1.02399
1986 1 1 14.8979 15.161 37.5173 2.71927
7497 1 1 15.1241 13.3584 0.78317 2.69742
500 1 1 14.7934 16.2158 1.11673 0.71453
7977 1 1 18.7917 17.1463 4.31948e-06 4.65049
7116 1 1 1.07002 16.6456 2.17107 0.100836
7947 1 1 18.3227 0.246731 1.23003 1.17658
1509 1 1 3.04526 0.199949 2.46175 0.799383
332 1 1 4.07901 17.5645 2.19448 2.53049
215 1 1 1.44997 0.588712 5.88756 0.722116
7613 1 1 6.86581 1.06812 2.14109 1.19066
504 1 1 6.41439 17.0787 1.27369 3.09016
96 1 1 3.18331 1.62555 4.03922 1.349
763 1 1 9.19358 16.0946 2.32094 1.35785
1675 1 1 5.28569 18.2926 3.17453 0.307931
1416 1 1 8.72194 17.5956 1.00013 1.67219
1196 1 1 10.0142 15.8291 1.64761 0.156661
898 1 1 9.30673 17.4035 2.7415 0.669437
7452 1 1 11.2576 17.1993 1.67937 0.801517
1339 1 1 12.5528 1.30735 2.37513 1.06647
980 1 1 11.3577 16.5122 36.8398 0.99854
1588 1 1 12.0186 0.226943 2.4819 1.55574
1589 1 1 14.2746 0.717762 3.55736 0.313468
505 1 1 12.0369 17.6183 2.52746 2.3498
7246 1 1 12.846 16.9225 2.88602 4.62329
653 1 1 14.1317 18.4398 1.77871 0.273549
1269 1 1 14.324 16.4891 3.39062 1.37479
1129 1 1 15.877 15.7224 0.105152 2.643
7744 1 1 16.2966 18.5196 2.60286 1.72144
1367 1 1 17.1402 15.8518 1.15195 0.429
109 1 1 2.1134 2.18205 3.20757 1.28504
845 1 1 1.31127 1.54907 4.90476 1.41379
2089 1 1 4.64453 0.824404 4.64725 1.06863
547 1 1 5.65006 1.89111 2.29162 0.70414
7197 1 1 4.73741 1.80509 3.90283 1.12396
6777 1 1 5.99914 2.87659 2.0817 0.0702874
7982 1 1 8.72233 18.2277 3.61209 0.561726
171 1 1 6.07067 18.3979 2.29153 1.96062
1734 1 1 9.39324 1.26608 2.11515 1.80206
1466 1 1 9.60081 18.7596 1.44058 2.39227
2204 1 1 10.3249 18.5208 2.81396 2.26942
7821 1 1 8.50354 17.9149 2.01196 0.998828
7539 1 1 11.2076 18.3112 36.4869 4.1207
2867 1 1 13.929 0.846367 4.59652 1.31785
7422 1 1 11.8668 17.7946 5.26078 2.04926
867 1 1 15.1116 0.00505562 4.96191 1.84779
1007 1 1 15.3181 0.394469 3.46451 1.72536
772 1 1 15.299 2.09562 5.19974 1.59437
126 1 1 15.6618 2.75789 1.92741 3.09237
194 1 1 0.00776933 1.91542 5.26884 1.56772
3242 1 1 16.9096 0.382685 3.41682 0.985683
7937 1 1 0.960096 2.66204 5.36098 2.6766
633 1 1 4.91755 2.74469 4.72828 0.592614
1738 1 1 1.84581 2.46379 4.64495 1.10883
2030 1 1 2.29654 2.15351 5.57959 0.295439
1365 1 1 3.65496 2.73153 2.42463 1.99014
1309 1 1 6.26134 18.6466 3.56567 2.45419
1488 1 1 6.79552 2.13825 4.20483 0.100452
1543 1 1 8.59087 1.52355 3.25355 2.8469
1661 1 1 10.7009 1.14002 2.75518 0.703491
7535 1 1 9.68368 1.04051 3.04245 1.00684
189 1 1 8.03835 0.422719 3.33262 3.63567
2177 1 1 9.27938 2.35029 2.77322 1.00518
544 1 1 9.82313 2.20935 5.4758 2.80938
1044 1 1 12.395 1.49157 1.10634 4.35469
742 1 1 12.7898 2.31468 4.17354 0.919797
3071 1 1 14.3265 2.53782 2.10441 0.670763
7830 1 1 15.8262 1.57578 4.29434 0.716487
1354 1 1 16.8069 1.68657 3.37254 0.624642
7758 1 1 17.1261 2.47456 4.33469 0.742998
7423 1 1 15.7789 17.0633 1.93244 1.56472
874 1 1 17.1783 3.37768 3.03867 1.72314
509 1 1 3.02316 5.07005 3.81206 1.38081
966 1 1 1.05201 5.86392 3.26792 0.561214
2033 1 1 3.4876 3.30383 4.3756 0.705577
2917 1 1 2.94121 5.06824 2.66422 1.19554
2559 1 1 3.24283 4.01299 2.64755 3.0014
7785 1 1 5.18825 3.34705 2.78441 1.45391
1348 1 1 7.51984 1.65839 3.3963 2.05218
7215 1 1 6.11071 4.72307 3.58011 0.0783436
656 1 1 6.11334 1.41748 3.67484 2.67321
7924 1 1 7.70033 2.7035 3.36916 0.312301
661 1 1 7.52236 3.44389 2.50088 1.95011
1098 1 1 7.90149 3.12593 5.52983 5.37184
6477 1 1 7.9595 5.17978 5.10962 0.698061
1302 1 1 9.31884 5.70153 4.62399 1.3512
418 1 1 9.25267 3.84459 4.5925 0.522728
6060 1 1 10.4729 1.66752 5.04079 2.14883
6136 1 1 12.3425 3.83992 5.20798 1.16063
387 1 1 12.8723 4.47572 2.9824 0.532449
7185 1 1 12.6867 3.1334 3.10819 3.63208
636 1 1 15.1804 2.88248 0.895316 1.35627
1539 1 1 15.6263 3.83847 1.32964 0.84725
1422 1 1 13.9333 4.28907 2.76588 1.78124
1041 1 1 15.6424 1.92091 3.41201 1.31381
2202 1 1 0.221318 2.98983 2.45995 2.10405
7284 1 1 16.7999 5.92319 5.87393 1.06774
1374 1 1 1.65297 4.46189 3.92152 0.460636
7841 1 1 2.82548 6.33 1.96749 2.05798
6026 1 1 3.87593 4.64842 3.44799 0.291236
3 1 1 4.34013 5.32432 1.15536 0.668873
82 1 1 7.48973 4.2019 4.48126 0.57481
985 1 1 5.62246 5.72136 3.9576 1.13466
7123 1 1 7.18133 3.82005 3.57842 2.33554
533 1 1 6.62959 6.1628 5.7195 0.0179898
214 1 1 8.01663 7.24543 5.44347 4.21715
7663 1 1 8.6884 4.54319 5.42514 0.703327
1291 1 1 11.0212 3.64536 3.70955 0.13849
7644 1 1 11.9861 7.16981 3.30269 2.8469
588 1 1 13.4362 3.4995 4.45016 0.686217
3586 1 1 15.1556 4.96106 3.14251 1.66943
7725 1 1 12.9305 5.50622 2.91352 0.500555
4139 1 1 0.80944 4.61865 4.65678 1.05193
928 1 1 1.81606 6.65752 3.756 2.7831
7646 1 1 16.0574 6.93009 6.36468 4.57135
7992 1 1 18.2765 6.87782 4.99462 1.82009
1002 1 1 4.46161 5.72839 4.18416 0.57159
6804 1 1 0.406977 5.68776 5.54736 2.11125
2162 1 1 2.40685 7.16356 4.37651 1.97207
153 1 1 4.88426 8.44569 4.5017 1.47945
5747 1 1 7.44446 5.11414 2.89099 1.3754
2608 1 1 6.84602 7.15421 2.48679 1.3769
117 1 1 8.64398 7.25741 4.03842 1.81875
2311 1 1 4.70357 7.18815 5.54054 0.297876
7683 1 1 6.96919 6.84239 4.93493 0.273873
2589 1 1 7.70114 6.00924 5.6092 1.21517
553 1 1 10.1513 6.26164 4.51591 1.03184
7782 1 1 12.1334 5.41345 4.83615 0.163875
1784 1 1 11.7439 6.70188 2.5363 0.90639
1460 1 1 11.0956 5.95826 4.98071 0.378029
1927 1 1 13.3745 5.49851 4.87807 3.22142
591 1 1 12.9779 6.35039 5.63702 0.213048
240 1 1 14.5781 5.11687 4.16699 3.48811
102 1 1 16.2551 6.73987 4.27408 1.33503
2798 1 1 16.4233 7.16999 5.35637 4.417
1728 1 1 0.388651 8.20023 3.73712 0.879451
107 1 1 1.15283 9.58257 4.38289 1.49257
667 1 1 15.6181 9.14273 4.83745 0.749481
7242 1 1 3.05314 7.77632 3.4511 0.0751175
7641 1 1 0.692374 9.13303 6.53095 0.626929
925 1 1 2.57058 8.1357 4.55642 0.226458
1717 1 1 4.6091 6.90045 1.05304 1.28816
5817 1 1 4.7813 8.20005 1.73714 2.45776
1217 1 1 8.28229 8.2832 1.31118 2.22213
404 1 1 4.53238 8.76494 5.90835 0.61863
1194 1 1 8.07655 10.4395 3.68181 2.58678
604 1 1 10.4247 6.71928 2.60197 2.6991
345 1 1 7.97603 9.31692 3.50462 0.51535
7538 1 1 11.1495 9.15377 3.01698 1.47448
7322 1 1 10.3977 5.63779 2.3493 6.37402
216 1 1 10.1733 8.92447 4.00868 0.245723
1069 1 1 10.7914 8.033 3.73163 2.205
557 1 1 10.7236 8.59402 2.20829 0.78868
1833 1 1 12.342 8.47943 3.8631 2.20798
7739 1 1 12.9152 9.50965 4.47482 1.72721
6619 1 1 12.7313 6.49673 2.44536 0.602742
7756 1 1 13.2213 8.65617 5.52263 2.3457
7983 1 1 17.3891 6.43609 4.72409 0.870633
957 1 1 14.0378 5.50714 6.18702 0.719814
622 1 1 16.2248 7.65514 2.54928 0.208646
7795 1 1 15.9959 10.3631 3.00829 0.305636
2151 1 1 16.5069 8.42252 3.82328 0.848898
230 1 1 18.4564 9.10039 4.48451 2.12467
765 1 1 2.09133 10.2124 5.17583 0.921062
626 1 1 4.48297 6.85865 7.55668 1.23844
478 1 1 4.92899 10.6943 4.29935 1.28299
842 1 1 5.24467 7.32949 4.52575 1.69753
7472 1 1 7.21403 6.73606 3.69784 1.79832
983 1 1 5.63917 7.9437 5.33493 1.72504
1105 1 1 10.6553 11.9267 2.8851 0.43269
3068 1 1 11.575 9.65032 3.96987 2.31982
3406 1 1 12.1071 10.8349 1.14595 0.428908
1802 1 1 13.5401 7.97777 3.62879 0.123402
2578 1 1 14.2375 11.1078 4.39528 0.540315
1250 1 1 14.3984 8.32082 5.08445 0.18488
7470 1 1 15.0938 13.1178 3.15011 5.41194
1184 1 1 14.9967 9.55244 4.22415 1.82758
1677 1 1 15.5181 9.08262 3.21684 2.66935
1287 1 1 18.0594 10.1744 2.63129 4.5683
1082 1 1 1.73055 10.9789 5.96281 0.365105
1709 1 1 17.3123 9.13296 4.48265 1.16056
369 1 1 2.71379 10.8404 4.64124 1.44887
203 1 1 2.07617 12.0056 3.65292 3.19642
7541 1 1 3.22704 14.1854 6.32065 0.248031
834 1 1 1.05605 12.0442 4.96778 1.16382
134 1 1 5.38502 11.4791 3.87953 0.515415
6842 1 1 4.81057 11.3223 5.46248 0.816485
6975 1 1 6.13642 13.3753 4.65606 2.80699
970 1 1 6.94547 13.962 2.18869 0.298171
1475 1 1 7.15776 8.6744 4.28336 0.129726
95 1 1 6.89624 11.3673 2.43661 1.45368
1968 1 1 9.77415 11.549 4.06769 0.188592
6693 1 1 11.0898 13.115 2.31428 2.43989
7798 1 1 10.8698 10.6238 2.93468 1.61436
7531 1 1 11.1362 14.0987 3.09201 0.65489
7156 1 1 11.8824 10.7834 3.75785 1.37012
1848 1 1 11.8544 11.4062 4.70723 1.19201
38 1 1 14.7846 10.4443 3.33012 0.327281
1072 1 1 15.4834 13.3556 4.19001 0.780312
2638 1 1 17.398 11.8948 2.9232 1.59484
1438 1 1 16.3822 10.4182 4.1773 2.53306
6563 1 1 2.20753 11.8774 2.34631 3.88368
1836 1 1 17.4766 12.7677 1.98317 0.204756
1793 1 1 0.24018 11.0484 1.42772 3.34119
259 1 1 0.898992 13.1374 3.31785 0.377615
178 1 1 3.4432 12.1048 2.9955 2.0693
840 1 1 4.62846 13.4391 4.35987 1.92709
1264 1 1 6.65555 13.1475 3.69503 0.165037
487 1 1 8.73342 12.3769 3.83398 5.14276
7139 1 1 7.18911 10.4912 3.20587 0.314289
630 1 1 8.35969 11.3136 2.61712 0.708173
3108 1 1 13.5288 13.5292 37.3978 0.772885
7834 1 1 11.7782 11.8581 2.40703 1.15439
1904 1 1 13.8862 12.393 4.46133 0.844952
1799 1 1 13.6271 12.537 5.89976 1.78538
451 1 1 15.363 12.4863 1.56844 0.386465
1187 1 1 15.7267 15.467 5.51111 2.33659
7089 1 1 18.7651 13.273 2.68409 0.289637
7670 1 1 16.5775 14.81 4.35531 0.412108
5605 1 1 2.02906 15.8535 3.72434 2.32042
6665 1 1 4.32719 12.6341 3.88671 0.169069
245 1 1 3.88513 13.1899 2.64613 0.124282
7811 1 1 3.87801 13.6561 3.48399 1.85844
481 1 1 6.92241 14.6739 0.936205 0.79474
844 1 1 6.04661 16.3871 3.11535 1.36773
885 1 1 7.65941 14.498 3.88597 1.21899
53 1 1 7.54976 12.3808 4.52723 0.382473
221 1 1 9.71817 13.0918 2.19666 2.28996
1295 1 1 9.87034 10.8954 3.09932 0.481664
734 1 1 9.87148 13.799 6.03884 1.95645
7893 1 1 12.5786 14.4238 1.96502 4.62361
7040 1 1 13.0833 12.5558 3.26796 0.350346
7551 1 1 11.7234 13.7578 5.69342 0.693998
7180 1 1 13.7915 13.5152 5.5929 0.398036
1200 1 1 13.1784 15.6919 3.06934 0.0970845
888 1 1 15.3121 13.2829 5.33664 2.50405
1676 1 1 1.39303 14.5419 2.92272 1.83182
854 1 1 17.6145 14.4013 5.04694 4.55436
6762 1 1 0.173348 15.0003 2.64775 0.985534
1340 1 1 1.01833 14.965 4.05854 2.62179
7826 1 1 17.9693 15.3826 2.31593 0.270682
642 1 1 2.52256 15.7629 1.65705 2.27446
7840 1 1 3.10348 15.0404 2.06154 2.25763
7051 1 1 4.204 16.0507 6.33056 1.5719
480 1 1 3.44886 16.9885 3.48892 1.40874
1505 1 1 5.07722 15.0549 4.37768 1.5805
1128 1 1 4.85222 16.0382 1.60574 3.28617
7174 1 1 5.05647 14.9641 1.78139 0.35903
800 1 1 6.83753 15.8671 3.93506 2.95853
1930 1 1 7.47438 15.5142 5.19071 0.48431
1940 1 1 9.01624 11.4083 1.63072 3.991
6946 1 1 11.7113 15.4758 4.33086 0.855804
7678 1 1 8.1117 13.3918 2.91435 4.13058
7856 1 1 9.24858 14.2854 5.27304 0.25368
3078 1 1 12.8772 15.0537 4.7279 5.93767
433 1 1 9.12132 14.3881 3.32508 4.44523
1167 1 1 13.064 13.4914 4.44179 0.393536
6590 1 1 13.0105 16.8692 5.36005 1.15299