ITEM: TIMESTEP
5000
ITEM: NUMBER OF ATOMS
8000
ITEM: BOX BOUNDS pp pp pp
0.0000000000000000e+00 1.8820720577620570e+01
0.0000000000000000e+00 1.8820720577620570e+01
0.0000000000000000e+00 3.7641441155241139e+01
ITEM: ATOMS id mass type x y z v_temp
7088 1 1 18.1839 15.6499 36.4411 1.09445
677 1 1 17.7155 18.2188 2.16242 0.27664
6814 1 1 3.76525 0.384401 1.48651 2.08553
2103 1 1 6.29319 17.7791 2.56876 0.332886
1134 1 1 9.16889 3.23782 1.31493 0.87006
6551 1 1 9.66708 18.6163 37.1405 1.14204
1588 1 1 11.4883 5.04952 2.48102 1.22848
6121 1 1 9.23654 17.6539 37.3798 2.19213
94 1 1 11.4386 14.8345 36.7437 2.11387
1044 1 1 13.3027 0.60329 37.4001 2.54553
7796 1 1 11.7807 17.8303 0.406168 2.06574
7301 1 1 14.1605 2.31004 2.83943 2.96582
7423 1 1 15.1668 17.6291 2.03605 0.238644
7960 1 1 16.0206 17.9694 3.91598 0.276729
1479 1 1 15.3968 1.81765 0.141628 0.421661
2221 1 1 16.0326 1.89017 1.61559 0.737456
5355 1 1 1.43128 5.32025 1.83877 1.13019
859 1 1 2.01658 0.168584 2.85188 1.65976
776 1 1 1.96567 17.3408 0.817752 1.00675
6494 1 1 5.54929 5.24278 0.699177 4.05428
7412 1 1 2.94099 2.11027 1.23103 1.75562
2824 1 1 6.82597 0.475201 0.734425 0.174968
7604 1 1 6.6477 2.0394 36.5284 0.627518
7653 1 1 3.16164 2.37844 36.4281 3.33373
1266 1 1 5.96519 0.510449 1.48485 0.718029
175 1 1 6.46657 0.641928 37.1778 1.45788
7032 1 1 10.4643 4.20172 36.4138 1.60467
437 1 1 8.7786 1.27418 0.745648 0.559534
1563 1 1 12.1104 0.909393 2.03358 0.330819
7431 1 1 11.675 0.133393 2.68074 3.34839
1806 1 1 13.7279 2.40527 0.585551 0.61032
350 1 1 13.1757 2.92184 35.6985 2.40343
828 1 1 13.9039 4.14963 35.7529 2.22922
636 1 1 13.2626 2.90577 3.09727 0.639639
1183 1 1 17.6226 4.92756 36.9696 1.12723
877 1 1 13.2589 0.00519373 2.4941 0.939819
6845 1 1 16.9702 3.72755 2.57594 1.60636
2202 1 1 17.9865 1.53702 1.95597 2.15408
791 1 1 3.80748 2.62187 4.82572 0.582002
6006 1 1 6.88798 2.7404 37.2552 0.633078
314 1 1 1.64107 7.09253 36.8569 1.96772
406 1 1 4.31102 2.54562 35.3205 1.67631
367 1 1 2.80105 1.40603 35.5447 2.62492
6777 1 1 3.65376 4.23313 0.448716 1.01279
324 1 1 4.305 4.06905 2.36094 1.54043
454 1 1 12.2692 2.53824 36.6192 1.78038
1085 1 1 8.36132 1.63651 1.73647 2.53267
5462 1 1 5.73969 5.19883 1.74513 2.70915
2244 1 1 11.6278 17.787 36.9592 3.74294
285 1 1 9.08228 3.45501 35.7239 1.90899
7115 1 1 10.2994 6.25335 35.1274 0.558568
7155 1 1 13.3489 4.78014 0.0750347 1.74061
430 1 1 15.123 2.72782 1.37462 0.275193
7392 1 1 15.3254 2.46161 35.8877 0.605777
7440 1 1 0.905337 4.85789 2.916 1.09629
7660 1 1 2.63282 5.31021 2.16965 1.67984
190 1 1 1.92998 3.52863 35.3413 0.943352
7346 1 1 0.71911 5.26378 37.0019 2.95278
1562 1 1 2.25405 6.26591 37.6029 0.29875
733 1 1 4.68575 4.83788 1.20825 0.105656
7260 1 1 3.25751 5.33957 0.163584 4.29379
7564 1 1 11.4123 3.45597 0.626344 2.28186
7450 1 1 7.27393 3.48539 2.58175 0.951518
973 1 1 10.3632 4.99723 7.13041 2.68615
5741 1 1 9.2456 3.24168 37.5948 1.29388
6949 1 1 13.0878 4.01399 1.54575 2.63592
6997 1 1 14.6349 3.05652 37.0778 1.57493
7544 1 1 18.2785 5.85947 33.0183 0.551785
7273 1 1 18.7012 5.07846 0.667306 0.336573
552 1 1 15.8174 6.36886 2.24922 1.04091
137 1 1 18.7318 6.17578 1.22709 1.51818
1020 1 1 2.26176 5.20188 37.0496 1.95805
7594 1 1 0.122696 6.20737 3.03177 0.577084
1037 1 1 1.54958 7.58979 1.67269 0.552525
7965 1 1 1.09774 5.54773 0.382281 0.955367
1714 1 1 0.33153 6.10786 37.433 0.427993
762 1 1 2.18946 10.5101 0.666806 1.91147
135 1 1 6.56537 5.23102 36.8709 2.60995
7703 1 1 5.04225 5.70476 37.0934 0.957281
6441 1 1 9.08612 8.36719 4.09697 2.54277
1296 1 1 8.88885 5.09945 35.5977 0.106865
187 1 1 9.44498 6.21984 2.06172 1.19906
997 1 1 10.6248 7.7453 1.64989 0.668525
5812 1 1 11.9491 5.624 1.74344 2.07426
1784 1 1 12.4186 4.9228 37.1225 0.600811
2197 1 1 13.1881 8.42621 0.683685 0.366697
469 1 1 13.8976 7.02133 0.022699 3.26121
6476 1 1 12.0032 5.48615 0.502617 2.76
7318 1 1 17.0852 7.11062 0.625591 0.259837
6561 1 1 16.5956 6.48241 1.50408 0.737327
7844 1 1 17.1797 6.39938 34.9412 1.61401
205 1 1 3.18753 8.76157 2.30658 0.463515
7570 1 1 1.68959 8.42323 37.3882 0.207048
357 1 1 4.5939 7.9825 2.50537 0.93315
750 1 1 3.72417 9.2399 3.52607 1.71048
922 1 1 6.93507 7.61817 1.59523 2.49038
174 1 1 5.8357 6.37415 5.25233 0.272087
7738 1 1 6.64024 10.2765 1.02412 2.93666
1681 1 1 9.98151 9.79325 0.214806 2.14453
1001 1 1 9.07076 9.41883 1.19974 2.44058
7573 1 1 8.25114 8.18718 37.3687 1.07789
6907 1 1 12.7059 7.39367 2.03711 4.07126
7913 1 1 10.9147 9.56822 3.47677 3.7775
7548 1 1 12.9716 8.40191 2.13444 0.835988
79 1 1 14.251 7.13758 36.5658 0.784688
7411 1 1 12.3975 5.55046 35.9869 1.16385
669 1 1 11.9643 5.85104 3.76635 1.36504
6959 1 1 15.4183 9.82631 37.0759 3.25412
7424 1 1 16.4937 6.53202 0.0951697 5.51076
1401 1 1 16.6087 3.47119 1.08411 0.00369825
875 1 1 16.9498 6.64155 36.505 0.0305812
6828 1 1 1.53995 6.53383 1.47586 4.09736
1596 1 1 18.3231 8.17979 2.90589 2.53381
6343 1 1 2.95257 8.70565 35.0156 0.730013
6767 1 1 3.15549 9.96902 2.36269 5.25416
7846 1 1 3.77985 11.8271 36.133 1.30441
86 1 1 4.08953 7.83347 35.7382 0.93756
7144 1 1 6.20232 7.1141 37.3713 2.31133
7513 1 1 5.53427 7.76047 37.6202 1.38914
6380 1 1 5.63126 9.61463 35.3759 3.23495
6235 1 1 6.56899 7.98496 4.70809 3.08692
7002 1 1 7.07075 9.41172 36.1161 0.370817
7643 1 1 9.24472 12.087 0.872314 2.84931
7019 1 1 9.23068 8.48878 1.85196 0.569986
7943 1 1 9.29081 5.60223 1.08965 1.97086
543 1 1 10.4008 5.11805 1.63934 0.828996
5838 1 1 15.4504 11.1712 36.0884 1.9077
1120 1 1 13.1745 10.0624 37.2667 1.12965
600 1 1 17.054 10.0926 35.1035 1.48905
2072 1 1 16.9075 10.8281 1.78145 1.93031
5857 1 1 16.0569 7.17615 0.962542 3.61798
736 1 1 18.0291 8.7516 0.0479103 0.227351
7397 1 1 18.3746 11.06 37.202 1.83846
7800 1 1 17.8158 5.95113 0.673958 0.600593
7581 1 1 1.61777 9.05929 2.4767 1.5192
6599 1 1 2.16512 13.0687 1.44264 0.311175
7567 1 1 2.77643 12.975 0.452536 1.7252
439 1 1 4.50002 10.7978 1.64089 0.530599
1172 1 1 5.23289 12.0933 0.248809 0.731898
191 1 1 5.82924 11.8206 1.3615 1.03917
7065 1 1 7.01224 10.6391 36.3102 0.770504
236 1 1 5.38862 9.16057 34.1994 0.864132
6933 1 1 4.33081 10.8479 36.6 1.10134
238 1 1 6.96078 10.7485 3.1149 0.0145371
574 1 1 7.85212 10.2458 36.873 0.418406
6631 1 1 10.4931 11.3546 37.5602 1.19842
7949 1 1 9.75247 10.9598 0.549792 0.14208
3406 1 1 9.97698 11.4868 1.97919 0.957299
7834 1 1 12.7182 13.2832 1.89943 1.4715
1584 1 1 12.8688 10.2394 1.18964 0.759423
932 1 1 10.4976 10.2453 0.995078 0.219816
627 1 1 15.6 10.0148 0.617342 0.139143
1438 1 1 17.4933 8.61725 0.985843 2.19399
6752 1 1 17.5916 10.26 0.193361 1.69653
991 1 1 2.12185 10.1645 1.78672 0.721168
7555 1 1 0.927958 9.94939 0.615735 0.259013
1793 1 1 16.4466 13.975 1.43774 0.237731
962 1 1 3.19757 11.1536 0.532137 1.18007
7060 1 1 2.97353 13.014 3.40749 0.992385
340 1 1 7.20037 12.0054 36.695 3.63232
662 1 1 5.26129 13.1211 1.64241 1.61216
704 1 1 6.67151 13.9521 37.5749 0.660929
7351 1 1 9.2301 12.6013 37.2669 0.996767
2234 1 1 8.17396 14.5277 35.5003 1.11531
6693 1 1 10.6145 12.192 36.0855 0.622968
7749 1 1 9.16601 13.0858 35.3219 2.43822
2320 1 1 9.07099 13.0351 1.26641 0.57732
6723 1 1 11.9755 10.8092 0.879725 1.96909
7497 1 1 14.12 11.4429 36.3057 0.101465
1997 1 1 0.0126747 13.1507 36.008 1.79719
818 1 1 1.70485 11.1723 1.21612 1.13279
1399 1 1 0.981482 9.47681 36.4217 2.40386
924 1 1 18.2464 17.4787 0.902166 3.46165
6411 1 1 0.384497 12.8078 4.57045 1.94352
6464 1 1 0.556662 15.1197 0.298239 1.74352
7248 1 1 4.50372 13.6185 0.425347 2.31516
7404 1 1 4.42472 15.9851 2.93251 0.73438
7836 1 1 3.43518 12.2301 1.08347 0.993946
7457 1 1 5.6615 14.3642 0.454967 4.12551
7174 1 1 6.04755 16.6584 1.37529 1.42499
163 1 1 7.44109 14.2497 36.6536 3.76125
970 1 1 6.3169 15.5852 0.170307 2.06471
678 1 1 12.5264 14.0894 37.0503 4.00013
64 1 1 10.0626 15.6982 0.667183 0.570007
6399 1 1 12.2041 15.057 2.01398 2.35861
386 1 1 8.21894 13.5955 35.4121 1.3071
6873 1 1 11.1287 13.2615 2.07029 0.481818
830 1 1 11.88 11.1949 4.01042 5.31854
2106 1 1 11.8342 13.6034 1.43804 0.919541
375 1 1 14.5764 12.5613 36.7936 2.5339
209 1 1 14.3885 12.4165 33.6198 1.7048
5900 1 1 12.1063 12.4733 2.15892 2.5022
1749 1 1 13.4806 12.5623 36.8667 2.33819
711 1 1 17.0409 12.6038 36.3281 3.55522
7138 1 1 15.4303 13.0414 36.8127 3.54592
346 1 1 18.1041 12.6064 36.5865 1.63867
918 1 1 18.3262 13.5588 36.9116 0.544781
1136 1 1 0.74915 16.1994 1.14056 1.58248
6637 1 1 0.671434 15.3608 2.05332 0.318083
7957 1 1 4.91513 11.9136 3.0858 2.5358
642 1 1 3.74886 16.7916 37.0839 0.762672
639 1 1 6.58746 13.0073 3.05879 1.71999
569 1 1 4.93191 14.443 37.0442 0.406653
6673 1 1 7.32736 16.4425 37.5472 5.39344
1729 1 1 8.41128 13.0353 2.09616 1.47656
504 1 1 7.80622 14.403 1.9474 1.76019
7736 1 1 10.1368 12.9323 1.42391 3.82431
239 1 1 12.2166 12.5245 37.2593 0.665484
472 1 1 13.1111 14.6045 2.43688 3.28132
2373 1 1 12.645 11.9282 0.526082 1.24811
1186 1 1 14.4113 18.6398 37.1926 0.435024
7011 1 1 0.64239 17.7714 0.123095 7.34909
7338 1 1 17.2741 17.3454 1.4312 0.842105
296 1 1 15.2977 18.1359 36.9121 1.93979
7977 1 1 1.85245 16.7972 36.2751 2.49805
7863 1 1 1.5622 16.8302 1.76386 0.277829
668 1 1 18.4704 13.4582 2.87498 1.63376
1634 1 1 1.68882 0.408137 1.33246 1.6037
7097 1 1 1.48616 16.7524 34.1112 1.75282
332 1 1 5.01326 15.6539 0.731623 0.976545
7300 1 1 3.99009 0.559194 36.4631 0.209776
7297 1 1 8.43012 14.1299 0.422673 0.874616
287 1 1 7.20827 15.5187 1.1031 1.29881
414 1 1 8.15945 18.0513 36.7474 1.1196
5509 1 1 10.2728 17.7678 36.4717 0.347569
1196 1 1 10.9007 13.5159 33.7728 2.70273
6228 1 1 10.6713 16.2562 37.0063 1.75078
7568 1 1 15.9624 1.0314 37.2379 2.37825
809 1 1 12.9121 15.938 0.396182 0.977464
653 1 1 12.9315 18.3548 0.976109 0.394426
6982 1 1 15.1774 16.7001 1.47634 6.60354
2506 1 1 17.9848 0.164355 37.1283 3.32605
579 1 1 16.129 14.9187 37.2608 0.764678
273 1 1 16.0793 15.7798 1.42685 2.98472
1216 1 1 18.4054 17.3013 2.26093 2.15832
328 1 1 1.5496 17.5254 37.2168 0.0375058
647 1 1 0.0727601 1.03553 2.58985 1.74952
1469 1 1 6.3266 13.9966 1.39844 0.49594
829 1 1 1.92833 1.29365 1.32712 1.76516
1573 1 1 6.80325 1.41538 1.78845 0.682995
758 1 1 3.0265 17.0631 1.26249 1.77364
6079 1 1 4.33021 18.7126 3.30532 1.15878
7613 1 1 4.54089 17.033 2.91528 1.29081
6855 1 1 7.56374 1.68053 2.5313 2.08467
895 1 1 7.94481 17.923 0.777454 1.18905
7452 1 1 10.4861 17.1476 37.5993 1.68213
7753 1 1 9.31301 18.1958 0.96559 1.75426
281 1 1 12.9381 0.827696 3.4495 0.924634
500 1 1 13.9937 18.2236 0.926449 2.75989
1413 1 1 15.2695 0.550054 0.133853 1.09393
7529 1 1 18.0172 1.11223 4.68016 1.16387
1999 1 1 15.431 15.405 36.4712 2.32934
1713 1 1 2.18698 17.9317 3.14779 4.1372
643 1 1 3.54624 0.90518 2.45779 3.40976
1509 1 1 1.92229 18.2768 0.481881 0.608157
2026 1 1 6.99618 17.0788 0.814524 0.729372
1365 1 1 0.607823 1.20337 1.66755 0.527405
104 1 1 1.77872 2.98842 3.10564 3.76487
1750 1 1 6.86451 2.73308 2.12019 8.27119
1348 1 1 2.56134 3.31065 2.41976 2.88109
6581 1 1 8.25166 3.14101 0.709951 4.78575
6040 1 1 9.84676 2.6745 2.93448 1.18322
1140 1 1 14.2429 1.68078 1.61665 2.08795
7028 1 1 13.3718 3.00751 1.953 2.6978
7340 1 1 15.3701 17.5816 3.1492 0.915876
7185 1 1 15.0818 0.100665 2.09547 0.46979
1339 1 1 16.9897 1.43852 4.93086 0.0291953
1973 1 1 16.3448 18.6783 0.0351741 3.65848
1041 1 1 14.2276 1.84565 36.9578 2.58424
1511 1 1 18.5013 2.40549 1.88297 0.243179
1607 1 1 0.87573 2.47525 1.05782 8.77337
3242 1 1 0.505029 1.92523 5.94184 1.9083
508 1 1 17.1711 1.01328 36.9547 3.65461
7679 1 1 17.7265 0.447279 1.74706 1.08299
1198 1 1 18.1962 1.55335 3.15931 3.40286
7718 1 1 0.0140239 3.70238 3.16502 1.03738
7773 1 1 4.00736 2.44278 2.88676 5.07385
547 1 1 4.63158 2.35425 1.01162 1.95811
7751 1 1 10.4442 1.9845 1.75751 1.5318
6866 1 1 6.61532 2.99538 3.97527 0.45087
108 1 1 10.5542 1.90015 4.79944 1.55994
6363 1 1 8.70475 4.02548 36.9277 1.67918
1661 1 1 10.6236 3.17123 2.70043 1.43221
6659 1 1 12.3214 4.87561 3.99143 2.63317
6241 1 1 10.5169 4.84709 4.31319 1.89312
1007 1 1 12.5974 2.08401 2.35783 0.548594
3932 1 1 14.8751 5.26063 1.54808 1.13425
1928 1 1 16.7641 2.88863 3.29397 0.662071
3225 1 1 13.8797 17.5127 5.36064 2.08844
1591 1 1 14.187 2.89161 4.69253 0.567508
1672 1 1 0.592081 18.3034 1.19078 4.21719
31 1 1 2.68787 2.24742 2.29082 2.87034
2558 1 1 17.2798 3.93128 3.59338 0.401117
1045 1 1 2.03894 4.43487 1.13913 2.32831
6026 1 1 5.28302 5.17094 6.28099 2.33921
7785 1 1 3.78757 5.15219 2.31767 0.501328
6083 1 1 7.02716 4.02841 0.0114993 1.70768
6605 1 1 5.09938 1.42902 4.30259 3.27218
7625 1 1 7.42033 2.53925 3.26432 1.69923
593 1 1 8.52142 2.52244 4.02571 0.417312
1381 1 1 9.62037 4.19148 35.1747 1.26646
354 1 1 9.42459 2.37497 0.888468 4.43208
7094 1 1 10.2806 7.46938 5.2809 1.77645
7719 1 1 9.84674 1.28549 3.0938 2.39506
726 1 1 14.4591 3.32607 2.76899 1.13441
1270 1 1 17.8798 4.52098 2.62743 2.47247
3071 1 1 14.4786 4.31942 1.49943 1.00751
874 1 1 1.95169 4.74265 2.96287 0.521182
7697 1 1 2.95905 4.40038 1.77829 0.804269
6423 1 1 0.973891 3.6898 0.84473 1.5873
982 1 1 1.18257 3.87182 2.95851 1.17209
602 1 1 5.03929 6.11243 1.26804 1.76639
1310 1 1 2.09042 6.42083 2.32113 5.03513
1717 1 1 4.24766 3.50686 0.951278 6.96075
1279 1 1 3.61908 2.45401 0.152771 1.07227
7879 1 1 2.52911 6.94146 3.11147 0.666449
7612 1 1 6.54806 4.17232 2.95679 0.331991
1273 1 1 5.93468 5.19368 3.06395 0.788783
6424 1 1 4.9827 5.12563 2.56661 1.2123
1237 1 1 11.3394 2.34541 2.17849 2.46213
604 1 1 11.9763 4.18366 1.82764 0.994932
7466 1 1 13.3702 3.98038 2.94776 0.754635
742 1 1 15.7867 7.82879 2.12222 1.3085
7468 1 1 15.3579 4.19899 0.946079 6.95396
126 1 1 16.1544 2.55018 0.785449 0.272058
1539 1 1 16.4244 4.70826 0.721655 1.14407
1648 1 1 14.7793 4.6006 2.46428 1.11624
7633 1 1 17.1273 6.25082 4.56178 0.83781
6640 1 1 18.2081 5.16982 3.54573 0.725404
1715 1 1 1.8812 3.98795 1.99019 0.934695
966 1 1 0.843642 8.65875 1.70835 0.695311
7944 1 1 1.25408 8.20919 0.745054 2.56199
6987 1 1 3.3238 7.05815 37.3731 0.116325
2559 1 1 3.95948 9.9528 5.38578 0.526521
6815 1 1 3.46829 5.30893 36.1583 2.78674
615 1 1 4.483 4.88183 3.44143 1.89101
2608 1 1 7.01693 5.40118 3.37806 2.34848
7472 1 1 6.83228 5.4614 1.10266 0.403985
7482 1 1 9.95001 5.13611 2.86551 0.896284
1224 1 1 12.4021 7.08808 4.05189 0.581507
1790 1 1 15.7439 4.66475 3.28505 0.991902
277 1 1 8.43546 3.64795 2.35912 0.140253
6497 1 1 8.41579 7.13504 37.3768 2.34085
6044 1 1 15.0556 2.36655 3.53972 1.03283
1537 1 1 14.3611 6.62084 2.51018 1.62306
486 1 1 11.3877 6.99143 1.53813 0.900355
374 1 1 13.0058 3.79392 0.368254 2.63383
1377 1 1 14.0038 5.56982 1.00682 0.43012
223 1 1 13.4779 6.16872 2.16535 1.86182
651 1 1 14.8177 7.46886 1.18428 1.21765
235 1 1 16.9367 6.02329 3.07922 0.25308
573 1 1 18.2815 7.70199 3.89612 0.801858
7358 1 1 1.07385 7.04637 2.87824 0.237335
5817 1 1 3.44419 10.8473 4.25048 0.605958
158 1 1 7.34417 10.2662 4.8224 1.35001
842 1 1 5.803 6.72204 2.82618 0.72892
1751 1 1 8.60488 6.95534 3.19538 0.372854
6253 1 1 8.99335 6.03398 3.01747 0.748073
8000 1 1 7.25939 3.10518 0.532871 2.22437
1069 1 1 7.07278 10.6004 0.204417 0.907379
1217 1 1 7.39788 9.29875 0.751354 0.275379
2054 1 1 11.1141 8.92189 1.79896 1.23011
7644 1 1 9.41425 4.45134 3.93279 0.477537
21 1 1 10.1926 7.19576 2.84205 0.559254
675 1 1 13.4362 6.26388 4.53594 2.01611
1193 1 1 13.761 8.35704 1.56461 3.90159
498 1 1 15.1206 8.62921 2.10559 1.5795
140 1 1 13.1705 9.38602 1.55312 0.308261
550 1 1 15.4716 9.31792 1.42383 0.334699
2587 1 1 16.3372 9.35538 0.237661 3.27394
622 1 1 15.0011 7.63067 3.58272 5.72788
645 1 1 18.6838 7.88341 0.446546 0.728941
6675 1 1 16.8264 8.54425 2.54611 0.613158
7966 1 1 0.189222 8.78979 4.91432 0.531703
1290 1 1 2.78559 11.576 1.65511 0.167883
7803 1 1 4.26649 8.82783 1.82016 0.121186
7731 1 1 5.87153 7.31384 1.81401 0.860772
7841 1 1 6.03683 12.1982 2.42085 0.588354
6578 1 1 6.34471 9.85595 2.13389 1.08004
1264 1 1 6.89877 9.55896 37.3725 1.3996
6665 1 1 3.79875 10.7164 3.33046 0.373046
7721 1 1 8.34205 10.1071 1.02909 0.557189
568 1 1 8.18831 8.16544 2.7245 3.29766
610 1 1 8.08436 7.81576 4.29373 2.0267
955 1 1 11.6378 7.7724 3.67798 1.189
738 1 1 12.7354 8.11012 4.14685 0.819119
6686 1 1 12.646 11.0464 37.0068 1.59915
7634 1 1 10.4581 10.7693 3.65546 2.51247
7795 1 1 0.0797312 13.4509 34.9259 0.368253
38 1 1 14.629 11.4186 2.64996 1.11079
423 1 1 16.1979 9.37929 2.13013 3.509
7432 1 1 14.3743 9.54842 1.55869 4.30061
1360 1 1 0.634148 7.53636 4.0122 0.881273
3472 1 1 18.1211 12.8187 4.06878 0.767404
1677 1 1 0.232698 8.92128 0.860455 1.38489
663 1 1 17.4984 8.52813 3.64552 1.49528
7851 1 1 2.15996 11.1746 2.25006 0.167187
2638 1 1 1.70157 12.2798 3.52418 0.620759
1917 1 1 4.03745 12.2067 5.46904 0.903892
1318 1 1 3.88986 14.2935 2.33096 1.32189
452 1 1 2.57794 12.0978 5.40373 0.875554
2357 1 1 7.77588 6.08948 1.15953 0.80085
1863 1 1 6.88135 13.1694 36.888 1.37108
630 1 1 7.90308 12.8175 1.09098 3.22912
1968 1 1 9.39774 10.5801 2.75909 1.15892
1504 1 1 11.4138 6.67117 3.33719 3.25822
2150 1 1 12.9665 6.64471 3.14907 1.62763
708 1 1 17.3437 9.63834 1.20346 1.51346
201 1 1 11.3737 10.3217 2.94968 1.55938
969 1 1 17.8395 10.9976 3.43133 0.891494
1143 1 1 17.0629 11.8977 1.44711 0.540012
7128 1 1 1.23815 12.7261 2.46066 0.229553
300 1 1 3.13524 10.8616 37.1143 1.38434
7729 1 1 18.4812 15.835 3.69671 1.59402
1727 1 1 4.81891 13.2665 3.18476 0.585589
133 1 1 4.03657 11.6916 2.32325 0.428235
1528 1 1 6.88026 11.9508 2.90793 0.346145
945 1 1 6.00204 10.907 1.58966 3.27324
1210 1 1 8.793 10.7632 0.287913 0.558375
6584 1 1 6.4268 12.9514 4.7156 0.443028
342 1 1 9.15974 13.9722 1.72374 1.07096
1385 1 1 10.7831 11.3403 1.35738 1.98431
433 1 1 11.6733 11.757 0.108761 2.14184
6939 1 1 10.4097 12.1383 0.738083 0.136102
778 1 1 11.7321 9.06745 2.9595 0.321131
6567 1 1 13.8593 10.2121 3.81868 2.42763
7893 1 1 12.4373 10.785 2.91074 1.28104
596 1 1 15.9287 10.1463 2.96874 3.30113
1189 1 1 15.8821 11.3476 1.26732 1.18981
7089 1 1 16.1106 12.6432 2.6831 1.70257
1836 1 1 18.5272 11.3434 1.89076 1.02595
1280 1 1 18.3122 9.64736 2.7755 1.68647
259 1 1 1.39603 13.8232 2.34101 1.84183
7047 1 1 2.37513 13.8938 36.0514 2.00888
234 1 1 4.53435 12.2289 0.951854 0.816099
1448 1 1 17.2337 12.3497 4.66028 1.35164
7961 1 1 6.79738 12.8925 1.04267 1.39159
6379 1 1 4.6293 15.8121 1.69221 12.3071
299 1 1 6.0646 13.6093 2.46337 1.931
481 1 1 4.90425 14.3738 2.5221 0.706805
7678 1 1 9.48954 12.3528 2.10899 3.7466
7035 1 1 7.8964 12.5778 3.33187 0.998981
769 1 1 10.66 11.6658 2.87963 2.31007
7266 1 1 11.7724 10.5991 1.98889 0.895288
7856 1 1 11.5564 11.6411 2.44198 2.14666
338 1 1 13.4427 13.496 2.76824 1.05583
1617 1 1 12.6831 11.4413 1.77829 0.858572
1017 1 1 13.7038 10.1183 0.620356 1.21963
629 1 1 17.0249 14.7988 2.57168 3.1332
7999 1 1 0.256501 14.2301 5.81318 2.97935
255 1 1 16.4899 12.8032 1.59371 3.26903
2974 1 1 15.5473 15.5826 2.35329 0.450471
6833 1 1 17.774 12.3268 2.47681 7.10612
1042 1 1 17.5371 16.2904 0.825132 0.620657
7772 1 1 1.69706 17.2617 3.5767 0.0938463
1340 1 1 1.02359 16.3393 5.44599 2.59225
6459 1 1 17.969 18.4326 0.473196 1.47427
1676 1 1 2.85515 15.1925 2.63284 1.29147
4804 1 1 2.07275 14.4093 3.68962 4.2229
1651 1 1 5.51844 15.5288 3.71686 1.50318
7405 1 1 8.59937 14.8403 1.37301 1.15311
1416 1 1 9.5397 15.2592 36.6231 2.16339
6321 1 1 10.6765 18.0362 1.31296 5.69303
815 1 1 7.38461 15.0434 3.26985 0.9801
2347 1 1 11.7951 12.4075 4.0183 2.30911
2046 1 1 13.592 15.0878 1.17247 0.791864
7950 1 1 14.0251 16.0756 4.17096 3.3995
1077 1 1 13.2428 15.5598 3.33648 1.45925
89 1 1 9.90775 17.2465 0.725046 0.986599
7444 1 1 13.802 13.3039 4.74166 1.34407
1269 1 1 15.9715 17.3733 0.0746331 1.35474
1110 1 1 12.4885 11.781 3.36394 0.177614
336 1 1 14.0787 14.5868 2.27023 0.0527551
1614 1 1 14.4984 13.7685 2.72651 0.763791
1170 1 1 15.4689 13.0928 1.41603 0.208519
1367 1 1 18.0475 16.4608 1.86641 2.07646
1984 1 1 0.0814713 16.1725 2.59828 2.40575
1652 1 1 0.599482 17.0582 2.34668 1.16585
5605 1 1 3.53432 15.2748 3.41671 0.719891
157 1 1 4.68298 16.7326 4.28852 1.38831
549 1 1 1.82123 17.7832 2.16857 1.94029
1128 1 1 6.12441 14.9016 5.64154 1.24966
3499 1 1 1.95036 17.704 35.5443 1.43431
6280 1 1 7.53514 12.6214 2.24237 1.24049
687 1 1 8.76 15.4014 2.704 0.720556
7303 1 1 6.71832 15.9789 5.0007 1.28409
6688 1 1 8.32003 15.8483 1.94065 4.4232
898 1 1 10.1811 13.9033 2.10669 1.51784
1453 1 1 8.46549 17.7059 35.7988 2.1196
6582 1 1 12.4398 18.345 1.94315 5.2789
343 1 1 13.4177 15.5562 2.33149 0.308845
990 1 1 13.9534 16.7332 2.74431 1.03862
1139 1 1 14.7153 15.7653 1.60441 0.427045
1604 1 1 15.8644 13.2451 3.67418 9.44035
1070 1 1 15.6172 16.2101 3.19153 0.226954
7826 1 1 1.34955 0.790409 2.22577 1.59192
7847 1 1 17.9861 16.4703 3.00743 0.525117
7951 1 1 5.12951 0.855301 3.08377 0.614867
18 1 1 16.0622 0.726937 4.38935 3.07535
7454 1 1 2.70078 16.1782 1.99363 0.272151
531 1 1 4.96647 0.555086 1.63382 3.50337
1147 1 1 6.80116 16.9441 2.56077 0.667767
1466 1 1 7.83349 17.6531 5.23079 1.06639
490 1 1 7.76183 2.98981 1.81927 0.390627
32 1 1 8.44319 17.0311 37.5875 0.866211
62 1 1 10.8644 15.7094 1.6394 2.21908
961 1 1 11.2486 0.0347581 0.690826 1.52113
7821 1 1 9.70269 17.388 4.82582 0.766533
55 1 1 12.4502 16.0821 2.60043 0.995378
1616 1 1 9.76143 16.3442 4.417 3.08378
505 1 1 11.8748 16.8231 0.680861 0.628472
2348 1 1 14.077 17.2502 1.19747 0.32397
409 1 1 14.2646 1.49361 0.377817 0.480022
6824 1 1 14.6129 16.1547 7.26041 1.34239
670 1 1 18.2853 3.47523 2.28729 1.45689
6430 1 1 0.909388 17.6923 36.2834 2.86771
7434 1 1 15.7857 0.798339 5.38409 0.341762
910 1 1 0.113645 4.16958 4.23617 0.268882
7947 1 1 2.00188 3.48996 4.4397 4.12519
7451 1 1 17.1936 2.45634 5.91792 2.91653
1902 1 1 1.77475 1.12462 4.46147 1.19729
2365 1 1 8.80005 0.587486 3.36041 1.09741
656 1 1 6.03247 1.76049 3.65191 1.2856
902 1 1 4.42685 3.60878 5.78512 0.562039
7818 1 1 11.1014 18.752 3.86138 0.893628
1781 1 1 9.79331 17.5326 1.7364 0.218226
676 1 1 10.655 14.8428 2.61943 0.921516
2204 1 1 13.2416 1.25474 1.89855 2.34577
2208 1 1 12.2817 17.7563 7.02408 0.814458
164 1 1 12.7276 1.90062 3.60218 1.97798
147 1 1 12.3136 18.1165 3.02023 0.102064
1473 1 1 12.816 16.3805 4.03533 0.536155
7669 1 1 14.658 1.05524 4.39929 1.66778
807 1 1 15.4676 17.3453 6.27882 1.73497
7830 1 1 14.6462 1.23575 2.63538 1.09126
881 1 1 16.2731 17.4504 5.19043 0.897663
2134 1 1 0.20735 18.4156 3.39102 0.601673
1909 1 1 0.916775 0.838273 5.25323 1.09655
2066 1 1 18.1591 3.27601 4.17756 0.118566
7188 1 1 2.33274 3.9027 3.51027 0.846023
1654 1 1 18.584 18.7457 2.21201 3.12544
686 1 1 2.50245 5.20793 4.01862 0.332032
96 1 1 2.91584 3.29979 4.93798 0.306129
1322 1 1 4.54978 1.53816 2.44695 0.401388
148 1 1 1.74498 5.07616 7.75552 0.887278
729 1 1 3.1292 3.70181 4.08628 1.12379
6922 1 1 10.6529 0.175553 2.63788 2.85708
1543 1 1 9.3958 0.996319 4.14387 0.0232508
7934 1 1 5.54674 3.78268 4.31902 1.88153
544 1 1 7.45445 0.270653 36.634 0.791397
6942 1 1 7.30027 18.2301 6.36748 0.830452
61 1 1 7.78265 0.695741 3.7892 0.85686
1291 1 1 12.777 0.975529 5.35604 0.283831
822 1 1 12.4649 17.0863 3.37569 1.16471
479 1 1 10.8636 5.27318 3.27692 2.36932
1239 1 1 13.862 3.28853 6.52141 0.738336
149 1 1 18.3797 2.55853 3.35005 2.34388
772 1 1 18.7891 18.2802 4.79355 1.303
1826 1 1 13.7422 6.01013 5.53381 0.971158
519 1 1 15.5444 2.01232 4.3776 0.547424
914 1 1 16.2725 6.10449 4.10942 3.84968
1354 1 1 16.7086 4.60136 2.94933 1.46645
965 1 1 17.1725 2.04256 6.8675 0.949974
7887 1 1 18.3799 4.82408 1.66341 3.18217
845 1 1 0.353812 4.00411 6.77979 0.158702
1738 1 1 1.26707 3.86465 5.27275 0.776135
109 1 1 2.20708 8.3591 4.09728 2.11317
692 1 1 4.26837 4.38225 6.92456 1.48374
7366 1 1 4.02856 5.06663 5.6502 0.364406
7215 1 1 5.55014 3.54781 2.49186 1.35898
7861 1 1 7.14269 1.58712 3.70757 2.77605
125 1 1 8.765 2.94777 3.2659 4.09505
5799 1 1 11.7697 1.64722 2.93934 1.29648
1302 1 1 10.2301 3.77076 4.72492 3.46242
2191 1 1 10.7597 4.58 5.44752 0.271459
7322 1 1 11.5963 1.77175 4.7633 0.640456
7532 1 1 13.4543 0.0502269 5.60748 0.977615
98 1 1 10.174 3.88545 3.46419 1.08203
1450 1 1 15.3803 3.19329 4.31427 0.311228
7758 1 1 14.8837 3.77341 6.26864 0.118386
588 1 1 16.2347 3.64458 3.77652 4.81093
2793 1 1 15.5312 3.27232 3.18478 5.59343
1336 1 1 16.1732 4.64973 5.55109 0.782104
7595 1 1 0.642132 4.28679 1.9665 0.122362
7202 1 1 16.5705 4.57563 4.59776 0.234507
115 1 1 16.3081 2.50855 4.96564 1.72421
774 1 1 1.28275 9.41866 4.37936 0.773629
7791 1 1 0.91209 7.08096 4.98932 2.57859
2033 1 1 3.99651 6.38645 4.10862 0.472332
2044 1 1 3.56272 4.76581 3.88529 2.32624
799 1 1 3.09175 8.82054 4.97435 1.30517
489 1 1 3.49977 5.97478 1.3765 2.51748
188 1 1 6.05261 6.92703 4.13486 0.149293
580 1 1 9.40752 5.03873 4.94938 0.638804
7251 1 1 8.68676 5.80769 7.13903 0.347518
1850 1 1 9.26923 3.8586 4.87361 1.66479
6566 1 1 11.4747 3.39515 4.51129 1.44943
5747 1 1 8.00374 4.96972 1.55388 2.13901
6996 1 1 9.37884 2.50138 4.90433 2.89861
1025 1 1 11.1126 6.51919 5.66115 2.44568
1585 1 1 10.0058 3.90565 0.00522993 0.901801
6470 1 1 12.9835 5.38238 0.903969 3.70085
7782 1 1 12.6019 5.18531 5.04188 3.85133
2139 1 1 14.3597 5.5984 3.11352 1.5528
1422 1 1 15.5117 7.43274 4.88898 0.205975
1213 1 1 15.2537 5.64557 3.81789 0.857631
7579 1 1 13.6807 8.45611 2.92282 1.44859
6719 1 1 15.7446 5.15717 2.05395 2.3659
7659 1 1 18.5372 8.755 6.04474 0.762446
383 1 1 1.19252 4.72929 4.13092 1.02159
72 1 1 0.703225 5.74699 3.73801 1.05442
913 1 1 18.2458 9.52918 4.09101 1.05595
608 1 1 3.49967 6.2883 2.58815 2.64119
6159 1 1 15.5477 8.47692 3.13454 2.08392
509 1 1 6.27273 3.0994 0.978589 0.656484
2917 1 1 5.33671 7.43849 3.64709 1.13579
7601 1 1 4.9489 6.33943 4.39502 2.4035
3 1 1 2.63548 7.31437 7.16699 2.90977
1002 1 1 4.71589 5.11942 4.83853 1.20961
217 1 1 9.08211 6.27177 5.09641 2.51625
6477 1 1 8.26705 5.67608 3.58533 2.39201
985 1 1 8.05139 4.09837 4.84625 2.18708
7387 1 1 10.9434 6.52954 4.4078 0.283635
7683 1 1 7.47184 6.38325 3.07173 0.861536
7685 1 1 7.44513 4.90486 5.04533 0.415019
2855 1 1 11.1879 10.6407 4.72865 1.90218
6619 1 1 12.0646 9.04031 1.12945 0.228842
7850 1 1 9.64329 6.43944 6.06226 2.33516
7725 1 1 12.8866 6.66158 6.29614 0.492183
1203 1 1 15.3875 6.72005 3.61636 0.536153
102 1 1 16.7106 7.95771 1.41373 1.08389
538 1 1 0.335167 6.24653 5.33501 0.389571
1757 1 1 0.642139 6.87383 1.83884 0.0411634
802 1 1 0.694907 9.25334 3.17754 0.407639
926 1 1 18.3615 6.38688 4.36928 1.52112
1275 1 1 1.26884 8.29183 4.39652 0.719053
7326 1 1 2.48036 8.34393 9.0401 1.34891
7242 1 1 4.09025 7.13658 2.57565 0.457263
153 1 1 6.24938 7.84609 6.05304 0.682246
1547 1 1 6.83808 7.83988 3.06778 1.28799
6971 1 1 6.61758 6.355 1.62136 0.278172
1475 1 1 10.4835 6.35725 1.73534 2.232
408 1 1 9.03487 6.63578 4.05221 2.77422
7335 1 1 9.96651 9.1321 2.28909 0.627358
1809 1 1 11.7864 9.49257 4.03009 0.107569
557 1 1 12.7109 6.58837 5.20613 0.01566
2798 1 1 17.8682 6.26467 3.50602 0.207225
2151 1 1 14.9185 6.47583 1.3924 0.910659
1079 1 1 1.90793 10.1025 2.93502 2.01898
1728 1 1 3.14756 12.2577 2.43322 0.086989
634 1 1 2.13902 10.8514 5.04321 1.73078
1005 1 1 2.7961 9.68033 3.48901 2.48841
715 1 1 7.65454 9.93098 1.81472 2.19101
440 1 1 3.69871 9.64466 4.4613 0.974281
345 1 1 5.25597 8.37591 4.35099 0.840385
154 1 1 8.82525 9.52003 2.33677 1.90791
1194 1 1 10.3331 7.85352 6.33959 1.2364
1295 1 1 9.61962 10.5718 1.59952 0.516638
825 1 1 11.1588 10.3348 6.198 1.6583
1833 1 1 9.10307 9.3065 4.37336 2.05107
572 1 1 13.9068 11.8492 3.31299 3.74966
7739 1 1 12.8607 10.3842 4.23004 1.21211
1802 1 1 14.5746 11.299 0.764235 0.557912
7085 1 1 14.0511 9.05 0.720275 1.60459
790 1 1 17.5067 7.35742 2.85468 0.015211
667 1 1 16.8346 7.13701 3.89416 3.58579
1709 1 1 0.625404 10.7253 2.98165 0.1655
3565 1 1 0.396672 10.9617 4.04855 0.833274
1287 1 1 1.16179 12.4519 7.45395 3.08361
1349 1 1 5.48852 9.33971 2.29968 0.650825
6563 1 1 6.82683 11.7009 1.1698 1.5711
7130 1 1 5.47779 11.9457 6.26179 2.09156
6196 1 1 5.43244 10.0667 5.47276 2.12788
146 1 1 6.06554 11.4079 3.27406 3.80242
840 1 1 5.17171 9.42949 4.23793 1.85151
5697 1 1 4.97623 10.6458 0.441716 0.768679
529 1 1 7.52336 7.1437 2.18296 1.09161
95 1 1 5.23428 11.051 2.51022 0.877508
7459 1 1 7.66003 10.7747 1.13077 1.75576
823 1 1 9.87038 9.83549 3.69535 4.15813
487 1 1 8.74974 11.4443 1.43101 0.252865
7139 1 1 8.55566 10.9383 2.34506 1.21971
1940 1 1 8.56374 11.7381 6.26928 0.656873
1487 1 1 9.17395 10.3617 4.52795 1.53527
416 1 1 13.0224 11.5125 4.60953 4.21489
1199 1 1 14.2601 8.53725 4.58994 3.59984
7156 1 1 12.4308 13.5477 5.52031 3.03727
7004 1 1 17.5918 11.3603 4.44006 1.88054
1426 1 1 18.2709 9.44071 7.78567 1.55507
1000 1 1 0.97287 11.3387 2.10632 3.9625
2621 1 1 18.8075 11.3448 5.05039 0.968321
6762 1 1 0.272928 12.8814 2.09345 0.0869988
2329 1 1 3.97104 14.5478 6.04818 4.99449
7717 1 1 3.53368 11.5663 6.83185 1.13915
7755 1 1 6.59565 15.8924 3.60366 0.460696
6842 1 1 5.02252 11.8571 1.98312 0.519041
699 1 1 4.68643 10.3496 4.87473 0.421866
2732 1 1 8.21478 14.1122 3.03906 1.36733
7704 1 1 9.1013 11.3399 3.79987 0.845579
1920 1 1 10.627 9.41602 4.95307 2.44037
640 1 1 10.6162 10.2529 2.24714 1.52242
7531 1 1 11.1847 11.7284 4.75648 0.811337
221 1 1 12.2362 9.50722 2.07525 2.72678
1100 1 1 13.7655 12.1012 2.07943 2.76633
7798 1 1 15.3217 10.9263 4.33269 1.58325
7040 1 1 11.3235 12.2865 1.54819 1.31583
1493 1 1 16.6372 11.5816 2.48583 0.811861
1184 1 1 16.8957 10.1336 4.54072 6.23617
888 1 1 17.3443 13.0987 3.03231 1.64563
1024 1 1 1.60829 11.2949 3.0323 2.69621
986 1 1 18.3401 13.01 5.94764 0.282732
2277 1 1 0.389644 12.5907 5.5475 7.04136
204 1 1 1.53537 15.4028 3.30097 0.185124
1233 1 1 16.142 11.5609 4.3577 1.86927
203 1 1 1.08021 14.6201 4.25603 1.37508
7621 1 1 4.55461 14.6373 3.4588 0.503945
178 1 1 4.88853 14.2692 1.23141 1.01832
7811 1 1 6.09519 12.6814 37.4329 0.522209
584 1 1 7.1972 11.0843 2.10303 0.4247
245 1 1 7.22437 13.393 3.8152 0.299336
1505 1 1 5.77306 13.5468 5.56933 1.26539
1853 1 1 6.58865 11.9544 4.50321 0.721633
7489 1 1 10.0408 13.4119 0.161332 1.15983
906 1 1 8.79823 13.0487 3.30108 1.52779
2032 1 1 11.1657 13.0989 3.12942 0.380482
2126 1 1 14.7307 9.68636 2.93071 0.541777
6946 1 1 12.2465 12.2412 5.12447 1.85267