ITEM: TIMESTEP
4900
ITEM: NUMBER OF ATOMS
8000
ITEM: BOX BOUNDS pp pp pp
0.0000000000000000e+00 1.8820720577620570e+01
0.0000000000000000e+00 1.8820720577620570e+01
0.0000000000000000e+00 3.7641441155241139e+01
ITEM: ATOMS id mass type x y z v_temp
7088 1 1 18.2693 15.9399 36.4328 0.851781
677 1 1 18.0135 18.4048 2.78545 1.08193
6814 1 1 3.90885 0.750105 1.27706 0.673343
2103 1 1 6.1615 17.5036 2.80552 0.152767
1134 1 1 9.59122 3.31877 1.90746 2.21013
6551 1 1 9.41816 0.34287 37.2685 1.08105
1588 1 1 12.0033 4.99503 2.93752 0.824231
6121 1 1 9.66837 17.5997 37.2028 2.15773
94 1 1 11.1914 15.411 37.3424 1.64729
1044 1 1 12.9931 0.501106 37.418 6.6942
7796 1 1 11.7278 18.2232 0.450647 0.289351
7301 1 1 14.2739 2.16799 2.67777 0.563774
7423 1 1 15.1686 17.5175 2.16513 1.65174
7960 1 1 15.9378 18.2077 4.36219 0.361857
1479 1 1 15.2041 1.41015 37.5553 0.33598
2221 1 1 16.2867 2.47132 1.60218 0.955933
5355 1 1 0.911485 5.17737 1.84469 2.62963
859 1 1 2.52334 0.315857 1.56747 3.70063
776 1 1 1.98735 17.0147 1.19141 1.18272
6494 1 1 5.70903 4.66563 0.598973 4.41475
7412 1 1 3.46854 2.13492 1.10071 1.90917
2824 1 1 6.20005 18.7971 0.847425 1.5788
7604 1 1 6.62756 1.80596 36.9125 0.231948
7653 1 1 3.72471 2.50262 36.4513 0.905466
1266 1 1 5.71998 0.882875 1.68469 2.36597
175 1 1 6.37951 1.18402 0.49262 5.74076
7032 1 1 10.1059 4.1842 36.9246 3.8057
437 1 1 8.58581 0.752599 0.82369 1.08591
1563 1 1 12.2008 0.895155 2.20391 1.0075
7431 1 1 11.3043 0.183495 2.42204 1.69174
1806 1 1 13.4408 2.2548 0.543092 0.484017
350 1 1 13.2627 3.14753 36.345 2.18447
828 1 1 14.1597 4.0375 35.8087 3.62342
636 1 1 13.6251 2.35215 3.62782 1.35216
1183 1 1 17.3695 4.87903 0.0398735 4.36412
877 1 1 14.0143 0.508855 2.35388 2.80191
6845 1 1 16.7914 2.70683 2.59817 1.90749
2202 1 1 18.5846 1.26901 1.74315 1.11799
791 1 1 3.3316 2.23713 4.92647 3.26338
6006 1 1 6.71612 2.51169 0.067868 0.711012
314 1 1 1.82679 6.69883 36.6211 0.182671
406 1 1 3.78878 3.08072 35.3929 1.74691
367 1 1 2.81278 2.68915 35.8622 1.0253
6777 1 1 3.86275 4.13035 0.790508 6.03716
324 1 1 4.46296 3.5312 2.42098 0.452701
454 1 1 12.2518 3.08373 36.4121 0.96657
1085 1 1 7.67514 1.79929 1.83074 0.158332
5462 1 1 5.82973 4.59673 1.82686 0.462307
2244 1 1 12.101 18.6406 37.2613 0.182623
285 1 1 9.32964 3.08335 36.7639 2.50256
7115 1 1 11.1219 6.49318 35.2692 0.97645
7155 1 1 12.8117 4.59291 0.599399 1.04259
430 1 1 14.5399 2.34534 1.15203 2.25671
7392 1 1 15.6795 2.7198 36.1958 1.12541
7440 1 1 0.146931 5.46023 2.92208 4.83988
7660 1 1 2.80518 6.28317 2.02431 2.02173
190 1 1 2.04225 3.1441 34.7619 3.95715
7346 1 1 1.17866 5.10054 37.083 3.19656
1562 1 1 2.32409 5.85433 37.5833 1.03962
733 1 1 4.83324 4.83583 1.18867 0.401464
7260 1 1 2.90295 5.08424 37.175 0.886727
7564 1 1 10.9117 3.21606 0.297508 0.962416
7450 1 1 8.29695 4.5578 3.24616 1.65835
973 1 1 10.23 5.01625 6.20376 3.66349
5741 1 1 9.78777 3.58934 0.0799315 0.603216
6949 1 1 13.4959 3.85968 2.06625 0.754789
6997 1 1 14.1377 3.02627 0.330029 2.25262
7544 1 1 18.3593 6.44499 33.739 1.00242
7273 1 1 18.4893 4.95411 0.206387 0.667305
552 1 1 15.8561 5.61164 1.94439 2.79368
137 1 1 18.8095 5.9947 0.902768 0.560956
1020 1 1 2.34706 5.03436 36.2365 0.857406
7594 1 1 18.7569 6.97414 3.05273 2.65805
1037 1 1 2.0824 7.725 1.99512 0.756509
7965 1 1 1.51475 6.04154 0.54381 4.23377
1714 1 1 0.894961 6.276 37.3364 1.10891
762 1 1 1.94079 9.47458 0.631502 3.16307
135 1 1 5.75484 4.77223 37.1112 1.32711
7703 1 1 4.92902 6.15781 36.8932 1.45818
6441 1 1 8.30486 8.2494 3.79913 0.841335
1296 1 1 9.08069 5.1627 35.9645 0.25614
187 1 1 9.41948 6.32295 1.65788 0.474411
997 1 1 9.6254 7.33653 1.96707 2.18824
5812 1 1 11.4245 5.23104 1.64135 1.67773
1784 1 1 12.0671 5.37781 36.8768 4.06627
2197 1 1 13.1571 8.66277 0.783854 0.152289
469 1 1 14.1702 6.61339 0.509123 0.243978
6476 1 1 11.9832 5.07998 0.437813 1.02579
7318 1 1 17.7331 6.65492 1.00289 2.36497
6561 1 1 16.5087 5.58237 1.13973 0.967279
7844 1 1 17.7692 5.88819 35.9469 1.74223
205 1 1 2.85259 8.76301 2.4204 1.53978
7570 1 1 1.29226 8.14842 37.289 0.458452
357 1 1 4.15698 8.11559 2.69509 1.35156
750 1 1 4.36121 9.10774 3.35122 0.355915
922 1 1 6.71747 8.70667 1.67608 0.473854
174 1 1 6.02005 6.49197 5.2169 1.62205
7738 1 1 6.64686 9.08049 0.682377 1.05439
1681 1 1 9.20424 9.98999 0.382039 0.199488
1001 1 1 8.5969 9.09105 1.08746 3.56843
7573 1 1 8.02143 8.5205 37.505 1.55081
6907 1 1 12.2796 6.73966 2.41113 1.2156
7913 1 1 10.2714 8.80483 4.48306 0.743649
7548 1 1 13.0153 8.09714 2.05046 0.677896
79 1 1 14.1714 7.05308 36.9178 0.449557
7411 1 1 12.7633 6.05118 35.6153 0.898604
669 1 1 11.9756 5.51891 3.77371 1.17638
6959 1 1 15.2025 8.80107 36.6718 2.05772
7424 1 1 16.2225 7.43096 36.3465 1.01302
1401 1 1 17.362 3.5319 1.69663 1.15958
875 1 1 17.0529 6.65497 37.128 1.34329
6828 1 1 1.02055 6.78998 1.32137 4.67081
1596 1 1 0.458401 8.7075 2.76278 0.676512
6343 1 1 3.20379 8.66539 35.6565 0.474737
6767 1 1 3.94112 9.7888 1.67791 2.24848
7846 1 1 3.95978 10.8999 35.8337 1.91512
86 1 1 4.06986 7.99992 35.8561 0.601292
7144 1 1 6.42214 7.03261 37.014 1.12142
7513 1 1 4.53213 7.96414 0.160694 0.108816
6380 1 1 6.23148 9.29029 35.6604 2.432
6235 1 1 7.25918 8.52482 3.76139 2.38171
7002 1 1 7.16491 9.53479 35.8746 0.325181
7643 1 1 9.50426 12.1645 1.12037 0.47551
7019 1 1 9.26439 8.6633 1.67488 1.2793
7943 1 1 9.72798 5.95626 0.4251 1.56335
543 1 1 9.90068 5.28859 1.56709 1.53185
5838 1 1 15.7066 11.6659 36.3987 2.21085
1120 1 1 12.9643 9.54129 37.1507 0.570681
600 1 1 16.0656 10.0864 35.1526 0.553317
2072 1 1 16.9073 11.2914 1.60243 2.64215
5857 1 1 16.3722 7.15558 0.71634 2.70898
736 1 1 17.9193 8.81425 37.3974 0.745635
7397 1 1 18.0573 10.7492 36.3398 0.224512
7800 1 1 17.0695 6.06777 0.265767 0.836455
7581 1 1 1.66064 9.23075 2.31193 0.392511
6599 1 1 2.7973 12.2602 1.69031 4.32289
7567 1 1 2.2711 12.5203 0.126443 0.923477
439 1 1 4.66322 10.4529 1.71553 0.452557
1172 1 1 4.55822 11.6414 37.5721 1.36241
191 1 1 5.41603 11.999 0.822568 0.41084
7065 1 1 7.20801 10.8006 36.9448 1.27935
236 1 1 4.52164 8.9231 34.5565 1.60196
6933 1 1 4.49075 10.5778 36.6397 0.828256
238 1 1 7.19218 10.4662 3.33784 1.17189
574 1 1 8.44767 10.402 37.4487 1.08304
6631 1 1 9.97278 11.7746 37.3503 2.01341
7949 1 1 9.47441 11.0284 0.549465 2.04744
3406 1 1 9.87884 11.0673 1.56662 1.28429
7834 1 1 13.158 12.8948 1.88733 1.64943
1584 1 1 13.0041 10.6753 0.990276 0.209648
932 1 1 11.0653 10.5396 1.2442 1.95196
627 1 1 15.5692 9.96788 0.158623 0.84879
1438 1 1 17.378 8.38796 0.77325 0.659416
6752 1 1 17.3687 9.50841 0.328382 2.07104
991 1 1 2.47151 10.1799 1.34292 1.22829
7555 1 1 0.0935101 9.61821 0.622778 0.45502
1793 1 1 16.1322 14.3204 1.2322 5.09545
962 1 1 2.85384 11.6306 0.260988 0.80525
7060 1 1 3.37184 12.5591 3.70266 1.13843
340 1 1 6.6779 11.8613 36.9466 1.21805
662 1 1 5.1965 13.3111 1.09861 2.43001
704 1 1 6.89498 13.3113 0.565249 2.86251
7351 1 1 8.92257 12.5077 -0.00688975 3.99368
2234 1 1 8.46234 14.4755 36.0715 0.593097
6693 1 1 10.6544 12.961 37.0327 2.35197
7749 1 1 9.44917 12.4361 36.7665 1.97705
2320 1 1 8.86217 13.1021 0.836957 1.74463
6723 1 1 12.0501 11.2121 0.747982 0.892772
7497 1 1 14.2679 10.9187 36.461 1.69096
1997 1 1 0.263909 12.8934 36.6248 1.06001
818 1 1 0.762019 11.1744 1.81953 0.606978
1399 1 1 0.302294 9.17752 37.2873 2.72103
924 1 1 18.0026 17.0168 1.06842 1.29043
6411 1 1 0.144786 13.4461 3.81796 4.56281
6464 1 1 0.331966 13.86 0.0923731 2.43134
7248 1 1 3.98894 13.2709 0.446615 1.05197
7404 1 1 4.13871 15.7866 3.1863 1.88828
7836 1 1 3.26414 13.1263 1.03958 0.862568
7457 1 1 5.7655 13.6428 0.143479 1.18247
7174 1 1 6.04605 16.5057 0.893589 0.956167
163 1 1 6.4964 14.3527 37.2046 2.47716
970 1 1 6.81245 16.091 37.3256 1.26537
678 1 1 11.6634 14.4515 36.7191 2.33367
64 1 1 9.59239 15.3062 0.826875 2.04628
6399 1 1 11.6046 14.5895 1.40004 3.5532
386 1 1 9.08575 12.9212 35.4366 1.29586
6873 1 1 11.3099 13.5565 1.55178 1.93427
830 1 1 11.3904 11.5609 3.31455 0.152084
2106 1 1 12.2632 13.7613 1.3888 0.864204
375 1 1 13.8994 12.9973 36.4833 1.10038
209 1 1 14.7605 11.9296 33.8206 0.773222
5900 1 1 12.0816 13.0391 2.23638 1.83835
1749 1 1 13.598 12.7106 37.6275 1.10092
711 1 1 17.1224 12.617 0.0794073 3.00298
7138 1 1 15.6633 13.0024 36.1738 2.70419
346 1 1 18.2713 12.7642 37.4317 2.79243
918 1 1 18.2589 13.7415 37.2005 2.76975
1136 1 1 1.08327 16.2976 0.345662 1.72205
6637 1 1 0.512913 14.954 1.84419 1.86967
7957 1 1 5.31436 11.6741 2.77285 2.57953
642 1 1 4.21453 16.9777 36.9586 0.20279
639 1 1 6.63257 13.1557 2.86632 1.42885
569 1 1 5.49567 14.3079 37.0434 2.12389
6673 1 1 8.15746 16.0395 37.2458 1.44808
1729 1 1 8.00096 13.439 2.10236 0.779095
504 1 1 7.94442 14.5331 1.61728 1.87256
7736 1 1 10.2017 13.1919 1.15311 1.00463
239 1 1 12.112 12.2797 37.5592 0.568173
472 1 1 12.7387 14.5577 2.63253 0.606227
2373 1 1 13.0842 11.3984 0.410384 1.05467
1186 1 1 13.9811 18.7529 37.3947 0.728679
7011 1 1 18.6487 17.6924 37.2975 0.232707
7338 1 1 17.0991 17.0091 1.66261 1.46494
296 1 1 15.7789 18.0881 37.037 2.11139
7977 1 1 1.57127 16.5521 36.2599 0.621039
7863 1 1 1.24407 16.8367 1.8949 1.84461
668 1 1 18.24 14.1086 2.40751 2.44525
1634 1 1 1.64067 18.4409 1.06352 0.862912
7097 1 1 1.1354 16.7387 34.4617 1.64937
332 1 1 4.78186 16.0664 0.928049 3.29537
7300 1 1 3.89822 0.641363 36.8372 0.881927
7297 1 1 8.08931 14.2339 0.601311 1.30119
287 1 1 6.84832 15.4294 1.04531 0.0534123
414 1 1 7.889 18.52 37.1921 0.383073
5509 1 1 10.4655 17.7079 36.6149 0.960464
1196 1 1 12.1339 14.7734 34.1262 5.3991
6228 1 1 10.4753 16.5205 36.8025 1.27853
7568 1 1 15.8287 0.479534 36.8828 2.17455
809 1 1 13.1442 16.5152 37.3866 2.52293
653 1 1 12.8871 18.204 0.34317 0.677898
6982 1 1 15.0626 17.2204 37.3883 0.88064
2506 1 1 17.8234 18.3744 37.4541 1.17903
579 1 1 16.8365 14.8498 37.2371 1.55283
273 1 1 14.9463 16.3825 0.959545 1.44568
1216 1 1 18.6357 17.6688 1.62017 1.13319
328 1 1 0.694714 17.5416 37.1391 0.547717
647 1 1 0.812125 0.753318 2.28516 1.58188
1469 1 1 6.21089 14.5661 0.59629 4.94689
829 1 1 1.37822 1.89108 1.2616 3.32825
1573 1 1 6.45573 1.58785 1.62291 0.257689
758 1 1 3.15515 16.7887 1.48513 1.48762
6079 1 1 4.71302 0.177435 2.91386 0.846307
7613 1 1 5.21145 16.9944 2.3807 1.29915
6855 1 1 7.36707 1.40286 2.96844 0.697303
895 1 1 7.24093 18.3377 1.0652 1.65105
7452 1 1 10.7016 17.1933 -0.0517178 1.30557
7753 1 1 9.77609 18.5192 0.978901 3.4754
281 1 1 12.0897 0.161171 3.01046 3.78961
500 1 1 14.0394 18.4727 1.53561 3.63313
1413 1 1 15.0512 0.217007 0.808699 0.660149
7529 1 1 17.469 1.44945 3.90943 1.02827
1999 1 1 15.9321 15.7058 35.9524 1.57511
1713 1 1 2.46681 18.4425 2.71155 0.398566
643 1 1 3.19366 0.398467 2.64361 1.27333
1509 1 1 1.38889 17.6403 0.425069 1.59456
2026 1 1 7.85998 16.0494 1.03549 6.17355
1365 1 1 0.770295 1.82858 2.07408 0.84418
104 1 1 2.65892 2.51559 3.06978 5.83764
1750 1 1 6.63036 3.36696 2.16642 1.20085
1348 1 1 2.37213 3.49151 2.61978 0.714172
6581 1 1 8.55044 2.09232 0.450143 0.649802
6040 1 1 9.96542 2.37081 2.40644 1.35221
1140 1 1 13.6216 1.87449 1.69728 1.33818
7028 1 1 13.1134 2.63789 2.66536 2.04565
7340 1 1 14.4636 18.1301 3.27014 0.665292
7185 1 1 14.9118 18.7248 2.20692 1.17906
1339 1 1 16.1997 1.35422 4.17266 2.84587
1973 1 1 16.4306 18.7749 1.17387 1.23656
1041 1 1 13.8188 1.2665 37.1551 3.35625
1511 1 1 18.8063 2.41107 1.64908 0.226998
1607 1 1 1.37121 2.73474 2.26119 0.616679
3242 1 1 0.969762 1.6508 5.28346 0.999865
508 1 1 17.6881 1.78024 37.1981 0.393514
7679 1 1 17.6111 0.471119 2.1177 1.04547
1198 1 1 17.9791 1.17801 2.99948 0.0614665
7718 1 1 0.011097 4.08634 3.14979 0.924844
7773 1 1 3.64488 3.02777 2.84506 1.02399
547 1 1 4.38681 2.60534 1.50498 0.192401
7751 1 1 10.2449 1.45728 2.10948 3.76037
6866 1 1 6.63583 3.37183 4.06276 4.69744
108 1 1 10.2598 2.69905 4.89859 0.472054
6363 1 1 8.70488 3.61773 37.5466 2.58564
1661 1 1 10.6594 2.82808 3.17614 1.18934
6659 1 1 12.2455 3.97916 3.53688 1.79882
6241 1 1 10.0593 4.72528 4.23539 0.961537
1007 1 1 12.2696 1.97087 1.85326 0.972178
3932 1 1 14.6229 5.5655 1.95162 1.98523
1928 1 1 16.5649 2.18373 3.83491 5.07862
3225 1 1 13.997 17.9769 4.92518 2.71784
1591 1 1 14.3871 2.75228 4.32835 0.38717
1672 1 1 18.5264 18.1742 0.69418 0.510775
31 1 1 2.26319 2.93438 1.08256 6.73945
2558 1 1 17.9222 4.0853 3.66117 1.10348
1045 1 1 2.81202 4.36087 0.410408 0.198588
6026 1 1 5.27333 4.90794 6.0088 2.02445
7785 1 1 3.61436 4.43916 2.41756 1.16782
6083 1 1 6.48996 3.89832 0.273446 1.06168
6605 1 1 4.67286 2.41667 3.7985 0.868008
7625 1 1 7.35409 3.79387 2.92626 4.71084
593 1 1 8.15444 1.97518 3.61126 1.71125
1381 1 1 9.67686 3.94672 35.7857 1.00108
354 1 1 9.78794 1.99114 1.21264 0.909911
7094 1 1 11.1808 7.22157 4.88615 1.07077
7719 1 1 9.39998 1.11079 2.77593 0.10981
726 1 1 14.4927 3.47471 2.09723 1.52429
1270 1 1 17.4455 3.7653 2.69613 0.366642
3071 1 1 15.1874 4.30171 1.70347 1.32285
874 1 1 1.22071 5.37759 2.81292 0.66232
7697 1 1 2.79083 3.92096 1.78695 1.25502
6423 1 1 1.10949 3.73213 1.78571 0.114147
982 1 1 1.38516 3.92246 2.69848 0.348541
602 1 1 4.8723 5.94542 1.05254 1.92289
1310 1 1 1.91611 6.21705 2.88962 2.62995
1717 1 1 3.74451 3.30212 1.35929 2.88508
1279 1 1 3.70585 2.48995 0.179978 0.546815
7879 1 1 2.77727 6.70411 3.81888 0.723834
7612 1 1 6.35896 4.38387 2.70788 3.37945
1273 1 1 5.89059 5.20999 3.00705 0.663569
6424 1 1 4.82946 4.57884 2.20103 0.552347
1237 1 1 11.2248 3.08976 1.96723 2.31863
604 1 1 11.3077 4.3445 2.17903 2.02401
7466 1 1 13.5189 3.87731 3.17422 1.0128
742 1 1 15.9743 6.63834 1.94825 1.89714
7468 1 1 16.0331 3.69875 1.22531 1.52464
126 1 1 16.3946 2.63414 0.63789 0.575152
1539 1 1 15.807 4.72846 0.863785 1.5227
1648 1 1 15.0714 4.62225 2.7269 0.633951
7633 1 1 17.4311 6.10098 4.18373 0.871519
6640 1 1 0.0364356 4.93478 3.86545 1.50247
1715 1 1 1.9797 4.61997 1.59447 2.85999
966 1 1 0.838799 7.99403 1.77713 0.868494
7944 1 1 1.45392 8.11743 0.643144 1.08538
6987 1 1 3.37395 6.3699 37.5462 2.2134
2559 1 1 4.39275 9.79643 5.5121 1.8774
6815 1 1 3.81738 5.50708 37.3752 1.81714
615 1 1 4.39974 6.15478 3.14327 2.16562
2608 1 1 7.21117 5.23202 3.05714 0.109651
7472 1 1 6.52219 5.34642 1.39539 2.47809
7482 1 1 9.3743 4.97436 2.68783 0.838171
1224 1 1 12.6848 6.63747 4.28229 0.0977628
1790 1 1 15.0701 4.70416 3.77981 0.747388
277 1 1 8.35628 3.61476 2.20436 0.932967
6497 1 1 7.9295 7.14243 0.712939 3.14347
6044 1 1 14.9506 2.63882 3.14071 1.01461
1537 1 1 14.7066 6.5835 2.70548 0.6877
486 1 1 11.3508 7.4659 1.50881 1.44198
374 1 1 13.2589 3.62783 0.58613 0.497362
1377 1 1 13.4345 5.87824 0.383039 1.47789
223 1 1 13.7503 6.35917 2.16906 1.12927
651 1 1 14.7807 7.20741 1.13877 0.782993
235 1 1 17.2117 5.58445 2.35361 2.60584
573 1 1 17.9404 7.20275 4.01066 0.151402
7358 1 1 1.10002 7.26521 3.25538 1.12413
5817 1 1 3.31644 10.3763 4.19773 0.313529
158 1 1 7.51643 9.69098 3.83836 2.70003
842 1 1 5.3594 6.87436 3.20038 1.4935
1751 1 1 8.27696 7.27854 3.16615 0.0120137
6253 1 1 9.8936 6.61958 2.91734 1.28273
8000 1 1 7.46246 3.36751 1.43547 1.48103
1069 1 1 7.18088 10.3737 0.22107 0.0373121
1217 1 1 8.00258 9.94889 0.540999 0.425349
2054 1 1 11.2811 9.24118 1.52402 1.49809
7644 1 1 9.02538 4.15434 3.9328 0.683683
21 1 1 10.582 7.30748 2.97785 3.72339
675 1 1 14.1629 5.84287 4.20903 1.40325
1193 1 1 14.0292 8.37112 1.28894 1.50941
498 1 1 15.0081 8.70384 2.14505 0.333143
140 1 1 13.5643 9.75757 1.05799 0.873806
550 1 1 15.448 9.05748 1.23536 1.60623
2587 1 1 16.1225 9.17164 37.4169 0.879521
622 1 1 14.554 7.66782 3.77346 2.00372
645 1 1 18.4826 8.09108 0.184047 0.851615
6675 1 1 16.8199 8.31702 2.56525 0.128659
7966 1 1 0.281603 8.63253 4.41595 2.09399
1290 1 1 3.18253 11.251 2.06984 2.24278
7803 1 1 4.25861 8.20873 1.5814 1.41039
7731 1 1 6.02254 7.74579 2.06442 2.41947
7841 1 1 6.07643 12.3012 2.28637 0.958591
6578 1 1 6.80794 10.4141 2.24951 0.333982
1264 1 1 7.54683 9.41478 37.314 3.09429
6665 1 1 4.16589 10.6996 2.98744 0.624897
7721 1 1 8.09388 10.594 1.47543 1.6061
568 1 1 8.49547 8.15391 1.93628 0.545215
610 1 1 8.00807 7.11175 4.50551 0.132901
955 1 1 11.6454 8.1484 3.74956 0.952264
738 1 1 13.0088 8.70807 4.37287 0.803026
6686 1 1 13.3213 10.677 37.0654 2.07615
7634 1 1 10.9244 10.7054 3.667 0.285653
7795 1 1 0.0611066 13.1286 35.5628 0.884621
38 1 1 15.3875 11.1863 2.16298 1.06467
423 1 1 16.1128 9.68212 2.67712 3.50241
7432 1 1 14.4643 9.99062 1.97655 0.934767
1360 1 1 0.257675 7.60519 3.74208 0.423581
3472 1 1 18.2276 12.6077 3.06634 0.993984
1677 1 1 0.476426 8.51984 0.715353 0.37219
663 1 1 17.084 9.24017 3.07775 2.36607
7851 1 1 1.97091 11.7772 2.18519 1.95628
2638 1 1 1.67265 12.327 3.72373 2.45237
1917 1 1 3.66498 12.4779 5.55548 0.294451
1318 1 1 3.66775 14.7101 2.4659 0.145634
452 1 1 3.51176 11.2065 5.37645 2.87394
2357 1 1 7.20979 6.48658 1.20556 4.94546
1863 1 1 7.27545 13.7653 36.9497 1.95041
630 1 1 7.44735 12.4143 1.62698 0.728602
1968 1 1 9.14798 10.5156 2.48184 1.19222
1504 1 1 11.59 7.02732 3.48299 0.854428
2150 1 1 13.3181 6.52291 3.18524 0.71735
708 1 1 16.4292 9.64641 1.7512 0.546617
201 1 1 11.2514 9.97523 2.82222 0.369266
969 1 1 17.7624 10.7387 3.16622 0.0587095
1143 1 1 17.0837 11.6544 0.49129 4.31846
7128 1 1 2.17237 13.0525 2.97267 1.53206
300 1 1 3.20518 10.3302 37.3039 0.541995
7729 1 1 0.267934 15.3192 3.33938 0.991051
1727 1 1 5.28665 13.0635 3.10825 3.2558
133 1 1 4.43246 11.7283 2.01108 1.71326
1528 1 1 7.46543 12.0477 3.25834 1.62968
945 1 1 5.94133 11.1877 1.91876 0.312142
1210 1 1 8.51424 11.3564 0.849473 3.75412
6584 1 1 7.19365 12.6387 4.29043 4.52929
342 1 1 9.14874 14.1744 1.08719 0.708025
1385 1 1 10.9263 11.7295 1.89755 1.33538
433 1 1 11.2494 11.7485 -0.00863463 0.215129
6939 1 1 10.9787 12.2368 0.809758 2.5478
778 1 1 11.6104 8.69044 2.50082 2.96773
6567 1 1 14.6806 10.7188 3.98049 1.51304
7893 1 1 12.8765 10.6458 3.47173 0.185061
596 1 1 15.5589 10.9076 3.49989 0.438176
1189 1 1 15.5515 11.3117 1.17837 1.0412
7089 1 1 16.5132 12.2392 1.95527 0.128143
1836 1 1 17.6863 11.9323 1.79795 2.48759
1280 1 1 0.20372 9.62389 3.20221 2.61917
259 1 1 0.669554 13.8005 2.01377 1.38586
7047 1 1 1.76151 13.1542 36.9185 3.83635
234 1 1 4.22499 12.3381 1.25123 2.82475
1448 1 1 17.5595 12.2979 4.14666 1.71866
7961 1 1 6.36088 12.7822 1.2827 2.10431
6379 1 1 4.82931 14.9735 2.35334 2.09156
299 1 1 5.83642 13.3327 2.07115 0.446142
481 1 1 5.36826 14.1689 2.71838 3.10558
7678 1 1 9.34507 12.9142 2.08422 1.22998
7035 1 1 8.62417 12.4391 3.86827 0.956212
769 1 1 10.1691 11.7504 3.81151 2.18207
7266 1 1 11.6716 10.8382 2.07504 0.718251
7856 1 1 12.0698 11.9598 2.28336 1.94435
338 1 1 13.8341 13.4185 2.61652 1.0102
1617 1 1 12.5106 11.2442 1.87103 1.78575
1017 1 1 14.4032 10.5698 0.698713 2.88181
629 1 1 16.1252 14.3429 2.48115 2.04491
7999 1 1 18.2803 13.7974 5.18827 0.938008
255 1 1 16.2872 13.1796 0.991306 0.766041
2974 1 1 15.9624 15.6197 2.13051 0.692361
6833 1 1 17.916 12.8293 2.09834 2.78858
1042 1 1 17.1562 16.2961 0.646396 0.559057
7772 1 1 1.95335 16.4363 3.29965 2.92144
1340 1 1 1.82423 16.8213 4.66388 2.56588
6459 1 1 17.6469 18.1147 1.3506 1.12275
1676 1 1 2.29045 15.0018 2.58368 0.489366
4804 1 1 1.42472 14.3988 2.44983 3.57634
1651 1 1 6.00391 15.1262 3.49939 1.92484
7405 1 1 8.63513 15.3108 1.26305 0.478706
1416 1 1 9.70748 14.7434 37.1387 0.744436
6321 1 1 10.5984 17.0565 1.27389 0.557328
815 1 1 6.90987 14.598 3.41065 0.954895
2347 1 1 12.0593 12.607 3.83826 0.254779
2046 1 1 12.9907 14.3187 1.68398 0.797412
7950 1 1 14.2001 15.9361 4.25271 0.546382
1077 1 1 13.4572 15.4444 2.96181 0.617179
89 1 1 9.64697 17.0569 0.42906 0.0863739
7444 1 1 13.8521 13.586 4.8081 0.612779
1269 1 1 16.7248 17.0165 0.0282339 0.622907
1110 1 1 12.8103 12.3659 2.90473 4.7283
336 1 1 13.7887 14.4721 2.33051 1.10956
1614 1 1 14.7192 14.1053 1.91695 0.198962
1170 1 1 15.3236 13.1801 1.55995 0.971763
1367 1 1 17.7113 16.4124 2.20363 0.270544
1984 1 1 18.6227 15.7321 2.37 1.01832
1652 1 1 0.544984 17.4076 2.93346 0.465349
5605 1 1 3.16761 15.222 3.26047 0.639697
157 1 1 4.57397 15.8494 4.17579 3.55596
549 1 1 0.903702 17.802 1.48786 2.39405
1128 1 1 5.46389 14.9159 6.04064 1.81977
3499 1 1 1.97079 17.655 35.3441 0.223868
6280 1 1 6.87571 13.664 1.87996 3.35642
687 1 1 8.59969 14.2466 2.3902 2.76914
7303 1 1 6.14086 16.2538 4.62584 0.626474
6688 1 1 8.18538 17.2201 2.53654 2.95673
898 1 1 9.83507 13.9962 2.45697 3.07479
1453 1 1 8.51285 17.2383 35.0938 0.799793
6582 1 1 11.6731 18.0288 1.46724 2.72996
343 1 1 13.4347 16.2095 1.6922 1.51777
990 1 1 13.9041 16.3649 2.76996 0.280059
1139 1 1 14.7058 15.2616 1.97442 0.338069
1604 1 1 15.5161 13.8781 3.53587 0.34145
1070 1 1 15.7938 16.2402 3.29813 0.758546
7826 1 1 0.869747 0.710459 1.17683 2.1741
7847 1 1 17.8601 17.0269 3.19369 0.236934
7951 1 1 4.90276 1.30389 3.1641 0.632177
18 1 1 17.154 0.121249 3.65841 5.93153
7454 1 1 2.12038 16.2386 2.30768 1.38374
531 1 1 3.89827 18.5669 1.73507 1.74779
1147 1 1 6.94655 16.2924 2.3266 1.2118
1466 1 1 7.52925 17.9038 4.68535 0.334657
490 1 1 7.97166 2.65624 2.23776 2.13597
32 1 1 8.3888 17.2801 0.459719 0.663631
62 1 1 11.0672 15.3193 2.6293 0.575138
961 1 1 10.7444 18.6027 1.66821 2.31749
7821 1 1 9.17325 17.4139 4.92824 1.59439
55 1 1 12.3072 15.4861 3.1505 0.697636
1616 1 1 10.9438 16.7692 3.92416 2.74915
505 1 1 11.9431 16.4497 0.0898547 2.92061
2348 1 1 14.3707 17.3292 1.34396 2.13204
409 1 1 13.5042 1.18686 0.618599 1.24065
6824 1 1 15.4617 16.789 6.61647 2.01371
670 1 1 17.8579 2.8791 2.42958 1.40646
6430 1 1 0.58271 17.7404 36.1127 1.3001
7434 1 1 15.9802 0.292414 4.9985 0.964122
910 1 1 0.0932037 3.82707 4.30154 0.719068
7947 1 1 1.77014 2.33893 4.09027 2.35069
7451 1 1 17.2872 2.06513 5.18121 2.21894
1902 1 1 2.0942 1.09148 3.91938 0.39974
2365 1 1 8.12933 0.594911 3.07446 0.937316
656 1 1 5.68211 1.64498 3.80457 0.525863
902 1 1 4.20745 3.26747 5.7286 2.99603
7818 1 1 11.0955 0.0845355 3.56876 1.07252
1781 1 1 9.92893 17.9678 1.9449 0.803017
676 1 1 10.2894 14.6135 3.09968 3.73315
2204 1 1 12.8837 0.834813 1.51739 1.55807
2208 1 1 12.1208 17.8604 6.69256 2.27342
164 1 1 12.0904 2.12778 2.98733 0.239792
147 1 1 12.8294 18.3318 2.36293 4.92503
1473 1 1 13.6017 16.9338 3.9892 1.76335
7669 1 1 14.6977 1.40118 4.59405 0.59902
807 1 1 15.5399 18.3875 5.79105 0.914449
7830 1 1 14.9907 1.38815 1.60626 1.99527
881 1 1 16.3506 17.7975 5.41264 0.678167
2134 1 1 0.327181 18.4542 4.15828 0.513507
1909 1 1 1.17179 0.620002 5.43744 0.414501
2066 1 1 18.0474 3.0328 4.51971 2.79431
7188 1 1 2.08723 3.92011 4.16027 3.4358
1654 1 1 18.6109 18.8276 1.72232 1.13248
686 1 1 2.04996 4.95979 3.82863 0.548139
96 1 1 2.8195 3.23981 4.54145 0.684774
1322 1 1 3.82611 1.90094 2.58997 0.868498
148 1 1 1.44472 5.15166 7.87642 2.34101
729 1 1 3.24844 3.8487 3.83842 0.401241
6922 1 1 10.2831 0.553302 3.41354 0.663757
1543 1 1 9.2568 0.982696 3.91123 0.475622
7934 1 1 5.7147 3.55164 3.53448 0.481835
544 1 1 7.60119 0.350993 36.3501 2.4397
6942 1 1 7.54927 18.0775 6.17298 0.348269
61 1 1 8.25177 1.21044 4.29492 1.15042
1291 1 1 12.4212 0.573861 5.67339 1.77827
822 1 1 12.7968 17.0323 2.93918 0.311121
479 1 1 10.9132 4.66913 3.09618 2.04095
1239 1 1 13.8373 3.80095 6.34559 3.27248
149 1 1 18.5818 3.16705 3.60625 0.593579
772 1 1 18.8073 0.191053 5.31665 2.41833
1826 1 1 13.307 5.57313 5.99809 0.379696
519 1 1 15.5765 2.33775 3.96006 1.54895
914 1 1 16.2418 5.23768 4.01106 0.32097
1354 1 1 17.0095 4.30271 3.55481 0.662786
965 1 1 17.2937 1.5411 6.29866 3.6463
7887 1 1 0.341697 5.0539 0.943573 2.43089
845 1 1 0.439419 3.85845 5.90008 2.40442
1738 1 1 2.13685 3.57447 5.36246 1.31729
109 1 1 2.242 8.67404 3.35271 1.26039
692 1 1 4.20214 4.55847 6.18794 2.49982
7366 1 1 4.20276 4.11951 5.24993 0.696308
7215 1 1 5.72456 3.5329 2.52716 0.402708
7861 1 1 6.63541 1.19456 4.17349 1.14711
125 1 1 8.3143 3.37757 3.26344 2.82958
5799 1 1 11.2796 2.06687 2.28757 0.283596
1302 1 1 10.6419 4.29034 5.13962 0.225018
2191 1 1 11.8665 5.1072 5.39211 3.42951
7322 1 1 11.5826 1.98426 4.35975 2.33194
7532 1 1 13.5825 0.0796911 6.06883 0.291311
98 1 1 11.0996 3.90802 4.16874 2.88539
1450 1 1 15.8754 3.2496 4.58019 1.20622
7758 1 1 15.707 3.7889 6.37956 1.3436
588 1 1 16.2505 3.29472 3.48927 1.51204
2793 1 1 14.982 3.71234 3.2228 0.873389
1336 1 1 16.2123 3.67168 5.5213 1.08602
7595 1 1 0.203079 4.56387 2.12004 0.505444
7202 1 1 16.378 4.20799 4.49666 2.1439
115 1 1 16.3334 2.62033 5.35331 1.32908
774 1 1 1.18428 9.18691 4.5055 1.30936
7791 1 1 1.09807 6.85438 5.7536 0.215646
2033 1 1 3.74532 5.87656 4.29848 0.701492
2044 1 1 3.471 4.74441 4.36529 1.3067
799 1 1 3.50815 8.85401 5.02122 1.4667
489 1 1 3.74608 5.08782 1.37574 1.22637
188 1 1 6.24248 6.97074 4.06156 0.106486
580 1 1 9.29611 5.4066 5.14763 0.38922
7251 1 1 8.87946 6.21746 6.62037 0.622922
1850 1 1 8.57002 4.04914 5.05308 3.98773
6566 1 1 11.145 3.21278 5.17901 0.218067
5747 1 1 7.40222 4.70186 2.08938 0.696478
6996 1 1 8.82437 2.18001 4.95511 1.29917
1025 1 1 10.8478 5.79828 6.07495 0.387803
1585 1 1 9.94039 4.53657 0.429001 1.34296
6470 1 1 12.8236 4.93707 1.52408 1.10427
7782 1 1 12.6828 5.11893 4.8296 0.690236
2139 1 1 14.1753 5.30562 3.09429 1.49571
1422 1 1 15.3437 7.65181 4.77488 1.41273
1213 1 1 15.1326 5.76822 3.71141 1.89439
7579 1 1 13.8215 8.3936 2.61747 0.105352
6719 1 1 16.0702 5.2722 2.93253 0.271883
7659 1 1 18.4535 8.20946 5.11012 0.443556
383 1 1 1.04628 4.49521 4.34967 0.519037
72 1 1 0.525044 6.50899 3.88522 1.18509
913 1 1 17.4504 9.49222 4.3946 1.07472
608 1 1 3.80354 5.76489 2.16517 0.471793
6159 1 1 15.7649 8.16709 3.22542 3.69835
509 1 1 5.49257 3.68563 1.32065 2.79844
2917 1 1 4.55524 7.59135 3.61171 0.179556
7601 1 1 5.09492 6.2848 4.70361 0.540948
3 1 1 2.67054 6.86237 6.47961 1.18389
1002 1 1 4.71923 5.43733 4.21683 1.82921
217 1 1 8.02068 5.9892 5.41952 5.33981
6477 1 1 8.80954 6.28058 3.65943 1.44513
985 1 1 7.33886 4.30669 5.16982 0.328492
7387 1 1 10.7824 5.95925 3.94813 1.01
7683 1 1 7.69065 6.34628 2.87978 2.32095
7685 1 1 7.65362 5.18951 4.80007 2.25997
2855 1 1 11.8772 10.6724 4.81006 0.26848
6619 1 1 12.2316 8.6269 1.39209 1.33406
7850 1 1 10.1662 6.68486 6.59197 0.350845
7725 1 1 13.0594 6.76078 6.36578 2.59954
1203 1 1 16.0952 7.05401 3.52308 1.13723
102 1 1 16.8276 7.14949 1.7294 0.328453
538 1 1 0.514672 5.58863 5.24479 0.123811
1757 1 1 0.260827 7.01694 2.05175 0.684722
802 1 1 1.22932 9.41182 3.23985 2.24707
926 1 1 18.1974 5.6513 4.76589 1.28467
1275 1 1 1.08442 7.93646 4.21134 0.740689
7326 1 1 2.55498 7.6635 8.54991 2.61373
7242 1 1 3.47198 6.70752 2.61597 1.00409
153 1 1 6.44157 7.68441 5.82534 2.99893
1547 1 1 6.98707 7.52953 3.46418 0.970819
6971 1 1 6.30501 6.76684 1.72012 1.36177
1475 1 1 10.8089 6.08548 2.1407 1.03411
408 1 1 8.75757 6.30335 4.76504 2.76887
7335 1 1 9.75053 9.45628 2.62027 0.801879
1809 1 1 11.5271 9.86881 4.22167 0.44025
557 1 1 12.8332 6.30455 5.39885 1.23532
2798 1 1 17.9135 6.21696 3.14066 0.522754
2151 1 1 15.6499 6.43786 0.956433 0.125122
1079 1 1 1.57311 10.3739 2.92144 0.444747
1728 1 1 3.41093 11.9965 2.70568 0.447669
634 1 1 1.8854 10.2631 5.26906 1.18914
1005 1 1 2.25582 9.7363 3.08111 2.10905
715 1 1 7.67283 9.24112 1.80824 3.15025
440 1 1 4.66029 9.46799 4.37209 2.97194
345 1 1 5.92431 7.88274 4.42168 1.30102
154 1 1 8.68051 9.21178 2.27323 3.16302
1194 1 1 9.09425 7.83864 5.89988 2.13532
1295 1 1 9.19809 10.1066 1.46775 1.41849
825 1 1 10.971 10.0314 6.21428 1.08951
1833 1 1 9.4533 9.75005 4.37539 1.98837
572 1 1 13.6479 11.3401 3.42988 0.936292
7739 1 1 12.6756 9.98101 4.19621 4.13153
1802 1 1 14.2483 11.5219 1.28309 2.40939
7085 1 1 14.6089 9.56021 0.809577 1.14405
790 1 1 17.9443 7.5973 2.75375 1.09867
667 1 1 16.9965 8.15225 3.74875 0.0381763
1709 1 1 0.594008 10.9036 2.95815 1.49225
3565 1 1 0.429079 11.237 4.51279 1.70501
1287 1 1 1.46495 12.1382 6.87385 2.75047
1349 1 1 5.34504 9.66152 2.1506 0.115621
6563 1 1 6.52759 11.7641 1.10237 1.15702
7130 1 1 5.65131 12.0342 6.50691 0.3152
6196 1 1 5.30032 9.44237 5.83147 2.0489
146 1 1 6.49283 11.3959 3.06779 1.25959
840 1 1 5.0192 10.0518 3.53322 0.56204
5697 1 1 5.19655 10.3123 0.453244 0.135722
529 1 1 7.47695 7.83147 1.82144 2.81361
95 1 1 5.12136 10.5468 2.63402 2.13131
7459 1 1 7.15726 10.7955 1.19145 0.603678
823 1 1 9.74677 10.8044 3.60268 0.901694
487 1 1 8.72041 11.6999 1.93877 0.107375
7139 1 1 8.12877 10.1925 2.68983 1.4799
1940 1 1 8.90236 11.8958 6.74605 0.197797
1487 1 1 8.70877 10.3122 4.1885 0.0575401
416 1 1 12.9675 11.0244 4.73257 1.00194
1199 1 1 13.7928 8.43222 5.01531 1.40079
7156 1 1 12.8698 12.0212 5.21587 5.44924
7004 1 1 16.9774 11.2402 4.77458 0.614015
1426 1 1 18.3627 10.007 7.33311 1.30493
1000 1 1 1.00464 11.9465 2.78991 0.372213
2621 1 1 18.3216 11.282 5.26914 0.174083
6762 1 1 0.351288 12.634 1.99445 0.749109
2329 1 1 5.00472 13.8248 5.4633 0.989497
7717 1 1 3.07654 11.8201 6.34647 0.539204
7755 1 1 6.70898 16.1471 3.39183 0.0567843
6842 1 1 5.03209 12.7617 2.11134 0.874163
699 1 1 4.37163 10.5769 4.73152 0.769486
2732 1 1 8.06578 13.9158 3.57402 1.15247
7704 1 1 8.75629 11.2956 3.82959 0.730765
1920 1 1 10.9088 9.89366 5.00795 1.43163
640 1 1 10.3564 10.3507 2.2851 1.92803
7531 1 1 11.137 11.9175 4.69306 0.226594
221 1 1 12.7681 9.39833 2.25668 1.51653
1100 1 1 13.5616 11.4865 2.35164 0.599669
7798 1 1 15.6073 10.2553 4.40051 2.55231
7040 1 1 11.9583 12.7058 0.90346 0.455969
1493 1 1 16.2722 11.5178 2.73152 0.315485
1184 1 1 16.4202 10.4033 5.54261 1.4497
888 1 1 16.5342 13.6213 3.35416 0.413927
1024 1 1 1.29744 11.1759 3.72028 0.0950102
986 1 1 18.1509 12.6502 6.40968 0.278251
2277 1 1 0.564206 13.1392 5.07 0.386151
204 1 1 1.05599 15.7512 2.60874 4.9129
1233 1 1 16.2765 11.7097 4.1076 2.29348
203 1 1 0.585617 14.0656 4.64661 2.09263
7621 1 1 4.39265 14.8638 3.50947 1.65385
178 1 1 4.63347 13.9964 1.77281 0.817613
7811 1 1 6.34109 12.2387 0.255366 1.18016
584 1 1 6.9196 11.8591 2.21342 0.376566
245 1 1 7.03073 13.6485 3.79029 3.37826
1505 1 1 5.69744 13.0819 5.65673 4.30126
1853 1 1 6.83844 11.469 4.25887 0.797067
7489 1 1 9.93347 12.8196 0.271239 5.21883
906 1 1 9.37575 13.8753 3.37836 0.856045
2032 1 1 10.9634 12.7324 2.88047 3.28888
2126 1 1 14.9345 10.0148 2.97838 0.730217
6946 1 1 12.0812 11.6242 4.13626 4.1202