ITEM: TIMESTEP
3800
ITEM: NUMBER OF ATOMS
8000
ITEM: BOX BOUNDS pp pp pp
0.0000000000000000e+00 1.8820720577620570e+01
0.0000000000000000e+00 1.8820720577620570e+01
0.0000000000000000e+00 3.7641441155241139e+01
ITEM: ATOMS id mass type x y z v_temp
7951 1 1 1.2128 0.238735 1.32954 1.35381
328 1 1 0.269234 0.647087 0.697281 0.702049
1739 1 1 2.16841 2.01528 35.7039 0.818134
1573 1 1 4.29968 0.545355 0.0506965 0.883901
1198 1 1 3.40382 2.62342 1.24042 0.305058
7166 1 1 8.24808 1.20081 36.5567 0.785503
7300 1 1 5.15843 17.9328 0.663549 4.56447
1328 1 1 5.8597 1.14399 1.1151 1.86745
1446 1 1 8.79987 0.475041 37.2812 1.83425
1140 1 1 10.2561 18.5876 1.06883 0.0446182
56 1 1 6.67738 3.68611 37.5954 1.80397
6855 1 1 10.0254 18.2749 37.642 2.20206
7149 1 1 12.52 18.2654 0.116768 1.74221
887 1 1 10.7443 18.5627 35.7596 0.721437
7745 1 1 12.8424 0.074316 35.2107 2.95801
801 1 1 12.1243 18.2436 34.2405 0.423665
1479 1 1 17.6024 1.23547 1.14252 2.93581
7301 1 1 13.464 18.7976 37.5469 0.315661
1511 1 1 17.6005 0.267937 1.86816 1.29566
6839 1 1 16.522 1.80312 36.6278 1.16805
1672 1 1 16.9184 2.01419 2.03341 2.45388
7088 1 1 0.0814615 0.393872 37.2143 0.393333
1380 1 1 18.0128 0.766869 36.8668 0.778174
7930 1 1 3.35299 18.7859 36.0571 0.330378
508 1 1 18.7844 2.2666 1.46615 1.73561
2026 1 1 3.98809 0.812715 1.73497 0.620573
1279 1 1 4.48824 4.51036 2.33316 0.315794
6494 1 1 5.0454 1.67341 37.6409 0.477972
7604 1 1 6.43921 2.2047 0.914602 1.59709
1266 1 1 7.16091 1.53091 1.69654 4.77638
324 1 1 7.04027 3.20159 1.16363 2.57947
7751 1 1 6.94729 2.39287 2.2133 2.05771
7564 1 1 8.49341 4.52013 0.820513 2.67765
7653 1 1 6.17231 1.13149 36.2462 1.22619
6866 1 1 7.80675 2.13132 2.7228 1.02538
775 1 1 11.1111 1.32394 36.0508 2.15568
7283 1 1 9.41663 4.4666 36.0816 2.49458
3337 1 1 12.7217 0.752703 37.1382 2.51491
446 1 1 11.3052 2.77021 36.5823 0.097486
350 1 1 13.1245 2.10072 37.636 1.49679
6850 1 1 12.2717 3.34372 36.3775 3.7318
1183 1 1 16.2339 1.67005 1.11394 0.325057
1020 1 1 17.5752 5.24024 0.301464 1.17092
6845 1 1 18.0328 2.9829 0.986737 3.29817
7202 1 1 17.6948 3.53691 2.35451 0.377207
1045 1 1 2.21476 4.4438 1.91871 1.37323
1713 1 1 0.852574 1.50549 1.17093 0.207553
6006 1 1 2.25295 2.02993 1.14762 3.4293
7697 1 1 0.695149 2.82399 2.47962 4.6984
406 1 1 3.71929 4.91857 0.712994 1.31043
7612 1 1 7.69432 4.7345 1.82609 0.123343
1333 1 1 9.48233 4.66569 37.3069 1.42288
7625 1 1 7.61251 3.32509 2.42858 0.776143
437 1 1 11.1698 1.81545 37.0062 1.63528
7032 1 1 10.607 1.83069 1.03327 0.299952
7392 1 1 14.6058 3.40941 0.410841 2.64038
5355 1 1 2.33331 3.87513 0.651599 5.72586
853 1 1 15.4928 5.41032 0.0139144 1.46379
7595 1 1 17.1667 4.60774 2.83046 1.53622
1037 1 1 0.0425572 6.65199 1.18865 3.61759
6423 1 1 17.3004 4.00939 1.55529 2.67417
6875 1 1 17.4674 5.09975 36.9837 0.667588
6987 1 1 2.56961 5.60467 1.90168 2.89118
366 1 1 2.89995 4.73636 34.6854 1.22925
7718 1 1 3.78842 3.08438 2.91922 0.361519
6083 1 1 5.73264 4.91244 1.9294 2.02283
1310 1 1 1.89468 6.32141 3.08765 0.211149
1723 1 1 5.73481 5.16809 34.7387 0.82471
135 1 1 6.53392 7.92643 37.6044 0.243638
5799 1 1 9.43304 3.81859 3.55122 3.72451
217 1 1 5.73677 7.40563 4.72117 3.69918
2244 1 1 10.7852 2.94537 0.955248 0.164018
6581 1 1 9.03323 1.8016 2.76051 1.6857
7450 1 1 10.3536 4.53495 0.779451 2.64033
7155 1 1 13.7994 2.86971 0.831014 2.63248
6551 1 1 9.8894 0.992974 1.10411 0.453696
7544 1 1 14.8988 4.53863 0.783025 0.996771
1377 1 1 14.6646 5.18772 1.57748 2.93613
223 1 1 15.7379 6.79734 1.92888 1.80576
7273 1 1 15.9558 4.40111 0.0850682 1.21505
877 1 1 17.464 3.19166 0.0116786 0.781513
645 1 1 17.8159 8.06452 2.0591 5.36009
1427 1 1 0.718953 4.10374 0.259202 0.921608
1562 1 1 2.0643 5.99265 0.332738 0.612034
573 1 1 17.6798 6.84524 1.43051 2.01498
7956 1 1 5.56144 3.96161 36.5075 1.3686
6152 1 1 4.19932 5.42487 37.259 2.31672
1224 1 1 9.07905 6.43802 0.771521 2.14467
1381 1 1 10.1571 3.345 1.64379 1.57186
354 1 1 8.95665 4.23839 1.71348 1.52055
6996 1 1 9.58806 4.71497 2.91682 0.167263
7408 1 1 10.5167 4.21302 37.4644 0.0733671
7466 1 1 11.7827 6.85575 2.31115 0.395315
973 1 1 11.3359 5.14413 0.956341 1.61675
6949 1 1 11.8241 6.56032 0.522628 0.93348
1664 1 1 13.0473 6.77966 0.0140311 2.31762
6997 1 1 12.2024 5.2042 0.302284 2.79619
6470 1 1 12.6851 4.13306 1.7175 2.36364
675 1 1 13.0707 6.53941 3.16387 0.714502
6044 1 1 13.8162 5.64343 3.23094 0.99769
140 1 1 16.2057 6.58988 3.07389 1.16735
276 1 1 14.2217 5.63391 0.795448 0.623403
1537 1 1 14.5827 7.18878 2.17206 0.913621
371 1 1 16.0038 6.6082 36.2746 0.805625
7659 1 1 17.5222 5.59176 2.75569 1.35531
3092 1 1 14.8002 7.32357 36.4475 2.19448
1757 1 1 17.5734 7.74414 3.53206 0.301011
7397 1 1 18.6022 10.0597 1.39324 5.04695
1360 1 1 0.0621079 9.53046 2.20654 3.19541
7942 1 1 2.08137 7.85287 36.4642 1.24312
86 1 1 3.39274 8.0836 37.0827 0.515954
6578 1 1 5.16616 9.7952 2.42813 1.29896
6767 1 1 2.74489 8.87003 1.13186 3.63615
1415 1 1 4.42512 7.20131 35.8515 0.742805
6874 1 1 9.72285 9.0075 0.48933 1.62327
6933 1 1 9.40255 10.2191 1.23992 1.14772
7573 1 1 10.787 8.40675 0.888539 0.185522
5690 1 1 11.614 7.84914 37.5941 2.24934
610 1 1 10.4075 10.0159 2.81493 1.57494
5857 1 1 17.763 9.2419 1.33228 1.42352
1399 1 1 18.7826 11.3983 1.76323 1.14251
5649 1 1 2.80803 9.24795 5.46377 0.638003
7026 1 1 3.51867 9.99265 4.54115 0.550532
158 1 1 4.1634 8.1177 2.73661 0.957991
930 1 1 5.39173 11.4364 0.22008 0.174331
7065 1 1 6.82187 10.5956 1.16804 1.09447
7731 1 1 4.86616 9.79776 1.39972 0.71664
429 1 1 7.09358 8.70346 0.463769 1.42126
7002 1 1 8.5082 9.71602 1.72117 1.05527
154 1 1 8.60453 9.91201 3.63468 0.872082
1296 1 1 10.3886 7.32589 0.319123 0.544066
7943 1 1 11.6679 9.32141 0.807262 0.838786
232 1 1 15.8683 10.1119 36.1005 0.227743
1193 1 1 14.4358 8.29109 2.15123 2.34306
7021 1 1 14.2578 7.61628 37.3734 1.43811
1120 1 1 14.266 9.06739 1.60878 1.29678
7548 1 1 13.846 9.09184 0.25918 0.823628
7800 1 1 17.9454 9.10347 0.290286 3.00793
3472 1 1 17.2871 9.94231 2.46833 0.568593
219 1 1 18.1503 7.54068 37.0853 2.17724
7967 1 1 2.04064 10.3861 4.37646 2.18576
1349 1 1 2.29518 11.4124 3.18746 0.609926
7729 1 1 0.80633 12.3201 3.27154 1.53743
7047 1 1 2.21345 14.0195 1.40324 1.95957
48 1 1 6.27686 9.26064 5.67551 0.691265
228 1 1 3.03882 11.345 37.0803 3.5438
1547 1 1 6.55184 8.88378 3.61076 0.860367
1790 1 1 9.01213 6.72167 3.20631 1.36613
238 1 1 9.6955 11.4088 0.853483 0.616488
678 1 1 7.81474 13.0638 37.6258 0.824337
1385 1 1 9.64015 12.2577 1.74931 1.52885
64 1 1 8.35712 13.2364 1.03473 3.12739
229 1 1 10.7817 9.6132 36.8025 2.18815
969 1 1 15.2285 10.9067 2.09792 0.384177
1997 1 1 14.2849 12.3079 1.10334 0.627248
7512 1 1 15.5697 11.5949 37.1604 0.698281
627 1 1 16.1331 10.3713 1.53443 1.95619
736 1 1 16.9912 10.0691 1.12996 2.39174
7805 1 1 16.3867 14.1764 36.1664 1.29358
549 1 1 2.99836 16.7483 2.13245 0.356792
1971 1 1 3.22728 12.6877 3.37854 4.71735
7621 1 1 3.50187 14.1416 3.72728 0.969485
452 1 1 3.64144 9.79182 3.40607 1.39413
1046 1 1 6.81699 14.6734 37.3167 1.25078
23 1 1 3.14247 13.3061 36.3422 0.188003
6253 1 1 7.29094 8.62827 1.93192 1.4605
6723 1 1 11.9954 13.6509 1.05332 0.373243
423 1 1 14.1727 11.2645 1.08444 1.85727
296 1 1 17.6086 13.7421 0.0588454 4.92427
7282 1 1 13.5558 14.9952 37.5151 4.06313
962 1 1 1.64268 12.3945 1.70899 0.624722
6183 1 1 1.43743 12.418 37.1328 0.65566
6411 1 1 2.07609 13.1028 0.39233 0.318469
7060 1 1 4.25763 13.0952 1.1682 1.30291
6898 1 1 3.4305 12.1228 0.410987 3.64738
6379 1 1 5.6901 14.5167 1.69456 0.300405
7035 1 1 7.54686 15.3808 2.09227 0.00380757
7457 1 1 4.92059 13.7167 37.5616 0.611128
378 1 1 11.9685 14.7607 4.39466 2.8878
5866 1 1 7.86073 15.6652 37.2927 0.568727
7620 1 1 12.9653 14.3528 0.551599 0.384078
708 1 1 12.3568 10.1938 0.639331 2.38022
7955 1 1 12.6215 13.3063 0.384157 0.522602
1567 1 1 16.8056 12.3332 36.366 4.87044
7338 1 1 16.9118 14.7469 1.23374 1.76357
336 1 1 15.8155 14.8337 1.57903 0.628013
7261 1 1 18.0961 16.293 0.0770077 1.00619
918 1 1 0.238967 14.2144 1.65021 0.863274
7845 1 1 3.89092 15.3172 36.2273 3.66467
7405 1 1 6.06971 15.8475 1.00528 1.86643
1995 1 1 7.6068 16.0491 3.17799 0.978581
1561 1 1 5.17412 16.3788 0.170851 2.0923
37 1 1 8.77638 14.8636 0.249537 2.35612
6399 1 1 7.97288 15.3389 0.982372 0.189845
961 1 1 10.0659 17.5994 1.87207 0.43173
7950 1 1 12.789 14.176 2.19721 0.473493
1144 1 1 10.3022 14.6554 35.3395 0.940935
511 1 1 12.5561 15.1065 37.3522 1.15098
6032 1 1 11.9323 16.5378 35.8917 1.16359
7163 1 1 12.9304 16.0033 37.2194 0.641127
820 1 1 11.8468 15.5929 36.4864 2.15577
629 1 1 14.8508 14.3746 2.00941 3.41124
1529 1 1 15.476 15.617 1.07613 2.02651
375 1 1 15.2516 12.9817 0.0867801 1.28474
7757 1 1 16.7106 13.9439 37.3494 0.770491
7672 1 1 1.4174 16.7223 37.1973 0.830899
1170 1 1 16.991 14.909 2.49238 1.11383
757 1 1 0.462327 16.4636 36.6447 0.217224
2476 1 1 2.98608 17.7056 37.1218 1.18279
1984 1 1 18.1527 14.9239 1.08284 1.4773
1136 1 1 1.86335 17.1661 1.73848 0.150323
7248 1 1 4.0525 15.1291 0.37848 3.37282
7530 1 1 5.84799 16.0601 2.91925 0.642052
569 1 1 5.99891 14.9357 0.455579 3.59329
7899 1 1 7.2558 16.5059 35.7489 0.546495
7736 1 1 9.68322 15.2826 0.508838 0.890067
6673 1 1 10.6654 15.6735 0.280473 4.3365
1103 1 1 10.2641 15.2357 36.6291 2.42987
7680 1 1 14.0306 17.9775 0.05314 0.454411
2106 1 1 11.08 14.382 1.21873 0.374349
472 1 1 13.7692 16.2618 1.35409 5.11635
2109 1 1 14.6144 18.42 0.83766 2.16638
579 1 1 16.8316 17.5187 0.368765 1.7232
1042 1 1 1.33096 15.573 0.56497 1.24611
2662 1 1 1.19375 17.3858 36.2266 0.318476
668 1 1 0.823007 17.7399 0.414287 1.52355
1469 1 1 3.79585 18.7896 1.08059 1.11072
7773 1 1 4.47721 2.94525 1.67641 0.783309
175 1 1 7.30756 1.75059 0.356867 0.708847
895 1 1 9.85472 17.159 0.746147 1.69417
1993 1 1 10.6177 17.1343 37.3647 0.764521
7753 1 1 9.55398 17.1571 37.2989 0.208933
7568 1 1 12.9763 17.3957 37.3825 0.129188
1308 1 1 14.3673 17.4317 36.3088 0.774421
788 1 1 16.0577 16.3968 34.9129 0.273192
7529 1 1 17.0146 0.290315 0.772752 0.364045
1315 1 1 17.3342 18.3857 37.6285 0.110992
7434 1 1 17.8868 18.1042 1.90709 0.518846
910 1 1 0.600864 0.185908 3.32652 1.95713
206 1 1 1.76965 18.4362 4.44672 0.970394
608 1 1 1.7659 3.84617 3.729 1.09181
692 1 1 3.35285 2.8605 3.80809 0.501273
7818 1 1 8.40668 0.180963 2.98702 0.0878795
6079 1 1 6.03447 18.6304 1.18737 0.6102
55 1 1 10.976 17.8835 1.35554 1.27503
2103 1 1 9.02216 0.712356 0.834972 2.06404
343 1 1 11.4236 16.8952 2.60592 5.62084
515 1 1 12.7229 18.5478 36.7276 1.06551
94 1 1 11.1641 0.0464466 0.272315 1.72544
6659 1 1 11.9079 3.00167 1.79671 0.712372
2348 1 1 13.9837 18.4091 2.17547 0.491917
409 1 1 13.8746 0.566991 0.695653 3.27822
7340 1 1 11.4961 18.6644 1.79038 1.6466
281 1 1 12.6324 0.3088 1.41395 0.291383
822 1 1 14.0048 1.87534 3.10132 0.585359
430 1 1 13.7997 5.13121 2.18934 1.05028
1928 1 1 15.1173 2.06819 2.00188 0.809104
807 1 1 16.1109 18.3523 4.09603 2.399
351 1 1 18.2153 16.0537 36.7653 2.21744
1607 1 1 17.2395 0.309929 2.92036 0.468853
149 1 1 16.4443 2.33048 3.18481 1.74468
965 1 1 17.196 2.95906 3.37544 1.86601
2044 1 1 4.66816 3.68161 3.12836 0.902737
1654 1 1 1.64927 1.31931 2.81376 0.192832
104 1 1 4.01078 0.661202 2.95096 3.18743
915 1 1 6.56358 2.32489 4.43414 3.79107
6040 1 1 9.49093 0.897538 2.16457 1.21963
454 1 1 9.06074 3.75104 0.364327 1.94382
726 1 1 12.6353 3.5417 2.52573 1.50293
1270 1 1 14.0899 2.73839 2.1682 0.925044
6241 1 1 12.8543 2.44105 2.11151 0.682248
828 1 1 13.7564 1.7482 1.06187 0.506366
7440 1 1 15.8465 3.55108 0.611102 0.724057
7028 1 1 11.9911 0.732965 1.98697 1.33338
552 1 1 16.7678 6.20306 1.24907 1.8826
1591 1 1 17.0465 2.72292 1.17474 1.69634
914 1 1 18.0026 2.10578 5.07754 3.32779
7633 1 1 16.2633 4.89622 2.26199 1.13935
383 1 1 18.3961 4.22821 2.75364 0.520818
643 1 1 2.91203 2.30345 2.59994 5.33312
115 1 1 0.388098 2.70605 4.63232 0.681047
7660 1 1 0.312479 3.1833 0.553276 1.13257
489 1 1 4.66425 4.89141 3.3792 5.00347
1322 1 1 5.17519 2.35452 2.78571 0.404806
7879 1 1 5.66709 5.81424 3.28995 0.939772
1237 1 1 8.88048 5.39736 2.18908 1.77193
1850 1 1 7.24878 5.1733 2.65512 1.54868
188 1 1 6.62841 4.88811 3.49051 0.935692
7861 1 1 8.52826 4.01201 4.02034 1.97858
6922 1 1 8.58713 2.13543 3.7191 1.8263
580 1 1 6.82607 4.08781 2.20639 2.1975
183 1 1 11.7807 1.41038 4.56253 5.29283
593 1 1 8.62844 3.3013 2.65427 0.629308
7468 1 1 13.6493 3.83166 1.32081 2.14288
2139 1 1 12.0508 3.97259 3.24644 1.72732
1213 1 1 15.8662 4.88177 3.38878 0.934396
1203 1 1 15.356 5.55501 2.35775 0.180152
982 1 1 1.01895 4.4864 2.08809 1.22382
1409 1 1 1.72058 8.29249 37.4599 0.909692
7938 1 1 4.09044 3.90204 37.5138 0.353711
1338 1 1 4.41475 7.57057 5.66624 3.55576
936 1 1 2.56487 0.964677 3.96054 1.29524
6605 1 1 6.61317 4.06172 0.975103 1.65601
2318 1 1 5.59582 4.87421 6.56242 2.66917
6216 1 1 4.54978 6.33738 37.1546 0.0985772
125 1 1 8.01689 3.08164 3.56701 1.48022
61 1 1 10.2377 3.16269 4.05886 0.20012
6566 1 1 7.77556 4.58974 4.37298 0.237324
164 1 1 11.9079 1.11334 3.36491 1.19499
7348 1 1 13.056 4.51385 5.84286 1.01784
285 1 1 11.3915 4.34586 1.79437 1.6646
5812 1 1 13.2656 7.78591 1.20882 0.400712
651 1 1 16.3738 6.03869 2.22755 2.26573
7358 1 1 18.7823 6.99016 2.27856 0.389594
602 1 1 18.1768 6.05619 0.536278 0.618125
1715 1 1 1.41143 5.70404 1.66114 1.00237
137 1 1 16.8742 4.29859 0.527067 0.957649
314 1 1 1.43319 4.84041 1.08772 0.0934816
72 1 1 1.63415 5.12462 3.50274 2.63513
802 1 1 1.05415 7.95103 3.58968 0.442557
6561 1 1 18.4709 7.01771 0.209135 3.80775
305 1 1 18.6286 9.14444 5.40635 2.3394
7944 1 1 1.94209 6.89931 2.19289 0.440481
7803 1 1 2.04771 7.65295 1.40101 0.654338
1864 1 1 18.8243 5.13771 4.45318 1.02396
6971 1 1 5.28232 7.62071 2.96376 0.289295
190 1 1 1.03667 5.70967 0.0327531 1.16102
7387 1 1 8.60033 5.87574 4.74563 1.08146
1781 1 1 9.85247 2.13635 3.38841 1.00179
7094 1 1 10.7665 3.73856 3.46164 1.54705
564 1 1 10.0132 5.46868 0.259736 0.392551
1450 1 1 12.164 4.16867 4.39873 2.7533
7719 1 1 11.3256 3.40134 2.6461 0.234262
550 1 1 15.5329 7.97204 2.26276 0.851898
108 1 1 10.3124 2.31519 2.30716 1.08653
271 1 1 12.7004 6.26325 4.64134 0.725292
486 1 1 12.3942 7.50997 2.80605 1.02861
956 1 1 15.8185 6.12903 4.74669 1.08251
235 1 1 16.6225 5.49785 3.39996 3.99467
6719 1 1 17.9773 5.11269 3.62588 4.48585
6196 1 1 2.16405 9.40008 3.03972 8.98418
1596 1 1 1.8697 9.34179 1.88207 0.606855
7308 1 1 1.88229 6.79018 37.1696 3.84296
7854 1 1 5.12548 9.26977 5.7184 2.70147
1917 1 1 2.88306 9.3818 1.96502 0.43427
7326 1 1 3.13962 8.65605 3.1074 4.17039
1681 1 1 6.22145 8.61318 1.49795 2.19289
7721 1 1 6.34011 9.8082 2.58123 1.76736
7482 1 1 8.04185 6.07626 1.0991 1.16512
568 1 1 8.26587 8.60781 2.99385 2.36841
1273 1 1 6.6241 6.2338 2.32993 0.337169
7643 1 1 10.5974 8.88968 2.43185 0.32483
277 1 1 9.64848 6.1354 1.97605 3.19758
825 1 1 11.2116 9.65957 1.88705 1.448
543 1 1 13.0625 9.15116 1.35195 1.07371
7945 1 1 14.5587 10.1336 35.7058 0.865491
790 1 1 14.9392 9.45958 3.67778 0.758177
6159 1 1 1.09553 6.4681 4.6647 0.55602
913 1 1 18.5994 7.31771 3.59676 0.618551
669 1 1 16.157 8.15762 0.848285 1.0495
79 1 1 14.9671 7.22657 0.816508 1.00857
926 1 1 0.987618 6.5857 3.60086 0.918501
205 1 1 1.00247 7.48149 1.96489 0.189427
7717 1 1 1.28002 11.8369 3.99327 0.525869
773 1 1 2.76136 12.21 5.85595 1.79132
2504 1 1 1.62677 9.07543 6.42252 0.159247
8000 1 1 6.59416 7.77724 2.60146 0.764795
1863 1 1 5.88002 9.76648 1.54038 2.19315
357 1 1 4.0157 9.35402 0.543491 2.97925
529 1 1 5.29668 9.94991 4.4213 1.41197
615 1 1 5.43674 5.98618 2.22428 0.671777
7335 1 1 9.34398 8.04182 3.68178 0.317664
1001 1 1 9.46543 8.77181 1.54444 0.174571
2814 1 1 9.94079 10.2051 34.5886 1.14055
7004 1 1 13.3617 10.7692 2.4709 2.06158
738 1 1 11.444 10.1369 3.19596 0.599369
1906 1 1 13.8205 10.8481 3.78513 4.59498
374 1 1 13.5746 6.99507 2.35103 2.07233
7913 1 1 12.6265 7.73067 37.2659 1.0373
596 1 1 16.4252 11.6405 2.12046 2.37125
7432 1 1 16.9157 9.60801 3.74167 2.62756
7488 1 1 14.2696 10.2835 0.60365 0.409001
6675 1 1 18.5854 8.26217 2.65986 0.0519309
7966 1 1 1.20697 9.25543 2.98763 1.8343
634 1 1 1.07452 10.1468 3.62331 3.18259
7056 1 1 3.05228 10.2201 6.74399 0.84372
6232 1 1 3.29828 10.6896 5.71375 0.568066
146 1 1 5.79236 12.9205 4.18657 5.14986
6584 1 1 6.07411 10.7347 1.9964 4.85864
1226 1 1 7.36615 10.7039 0.162811 5.5316
823 1 1 9.08523 9.66625 2.68464 0.561297
955 1 1 11.2467 7.82112 2.32865 1.87048
699 1 1 6.79238 12.6575 3.86292 0.174515
342 1 1 7.94276 12.2793 2.24343 2.87101
574 1 1 10.2489 10.6495 36.908 0.460975
386 1 1 11.9263 13.5011 37.0545 2.86777
818 1 1 16.3424 11.7464 0.965069 1.91865
2453 1 1 13.3828 10.7745 4.68026 2.05445
2353 1 1 15.8061 13.8708 4.11242 1.06457
600 1 1 15.3928 8.89981 0.804045 1.54051
7888 1 1 16.1303 10.1248 37.5132 1.71786
1079 1 1 0.465863 9.72686 4.46549 1.24697
750 1 1 0.814079 8.80324 1.10954 2.32475
7128 1 1 17.8909 10.6026 2.15956 2.51924
7851 1 1 0.0221341 11.8414 3.36371 1.95813
1528 1 1 4.70989 12.8083 2.30734 0.00886183
1006 1 1 3.75706 11.5162 4.8911 0.663422
704 1 1 6.44801 11.9631 0.923846 4.82892
7755 1 1 3.89823 11.5624 3.09799 5.1822
563 1 1 4.78393 10.9816 4.35459 2.73011
163 1 1 6.79393 12.8692 1.12472 1.67637
7704 1 1 8.69407 12.8928 2.48366 2.21476
416 1 1 11.4363 11.5138 2.69242 0.526769
7266 1 1 10.4946 13.5531 0.991146 0.581708
976 1 1 13.7149 12.4235 3.89931 1.51909
1189 1 1 14.4194 13.2573 2.36739 0.747209
7138 1 1 16.3248 13.1653 0.69086 3.50005
7999 1 1 15.5829 13.5019 2.42957 1.56387
1143 1 1 16.7099 12.0646 3.09763 1.18411
303 1 1 16.6802 14.7275 4.18474 0.779765
991 1 1 17.3668 11.0066 1.25374 0.782637
7772 1 1 0.991579 14.276 2.22119 0.0143946
559 1 1 2.71771 13.9247 4.5354 0.367775
4804 1 1 4.33277 15.1369 2.71951 1.19072
6464 1 1 1.11821 14.1233 0.971674 2.28792
1448 1 1 4.76827 14.1111 1.80975 0.121548
7217 1 1 3.02411 17.0833 3.304 1.17816
7489 1 1 6.78017 14.4703 3.88993 0.0972498
1210 1 1 6.40419 12.691 2.35821 0.257956
7961 1 1 5.49484 13.3734 1.89293 0.983612
769 1 1 7.63811 14.1947 1.26297 0.384741
1432 1 1 14.032 13.4556 4.70573 1.9907
2347 1 1 9.36289 13.9334 1.39995 2.77843
7705 1 1 11.7753 14.4786 0.218168 1.09726
6872 1 1 12.2467 15.2438 0.823244 1.48017
209 1 1 13.8863 14.4872 1.72367 1.10083
1406 1 1 15.7852 14.3329 2.95486 0.221653
1077 1 1 13.5197 15.1173 2.5464 0.788962
255 1 1 16.333 13.9439 1.90581 0.943107
1910 1 1 1.49172 14.5579 37.5823 1.58844
1999 1 1 18.458 17.7463 0.953829 1.07527
7404 1 1 3.50245 14.9384 1.83078 2.84453
1729 1 1 8.3121 16.1541 0.463764 2.88354
687 1 1 5.35969 15.6771 1.90299 3.07917
239 1 1 10.1502 14.4736 1.68264 0.876424
89 1 1 11.3727 15.4805 2.8836 2.60478
640 1 1 10.1359 13.2123 2.66307 1.30735
2373 1 1 13.1738 15.7841 0.55597 0.449283
1439 1 1 13.7698 16.5121 5.95348 0.292621
7052 1 1 13.3365 16.8498 36.351 0.312872
7444 1 1 13.7662 13.9787 2.90419 5.5408
7545 1 1 12.5428 15.3482 35.8076 1.2376
234 1 1 1.80753 13.5043 2.47584 0.567516
6824 1 1 16.9805 17.3633 3.12883 0.423727
1590 1 1 16.8875 14.9158 0.234976 1.0799
954 1 1 18.6761 17.7895 3.55445 1.10533
1282 1 1 2.28704 17.7003 2.49932 3.38176
785 1 1 3.22219 15.8382 2.57284 0.0418347
1634 1 1 2.64338 16.9922 0.924512 2.43215
1245 1 1 4.26572 16.5762 2.81272 0.988086
7957 1 1 3.79254 16.3051 1.26012 3.7735
7303 1 1 5.14286 18.0637 1.90039 0.512822
1337 1 1 6.01195 16.7007 2.13111 1.38161
381 1 1 11.178 16.9591 4.7285 2.26444
1453 1 1 11.7101 15.9636 1.87741 0.984976
2224 1 1 12.0323 17.1292 0.153381 1.26887
841 1 1 10.7719 14.3409 36.8889 3.49176
6582 1 1 10.2546 16.4081 1.40836 0.820046
809 1 1 12.2845 16.3373 0.753595 0.340049
948 1 1 11.5707 15.5258 37.6145 0.718824
1186 1 1 14.5322 15.9178 0.62229 1.62669
1986 1 1 14.2346 16.0087 37.1919 3.28934
7497 1 1 13.7423 13.19 1.0864 1.3525
500 1 1 14.5715 17.4289 0.845778 1.79166
7977 1 1 0.114778 16.7558 37.4569 0.544179
7116 1 1 0.314 16.5101 3.19192 5.2302
7947 1 1 0.0362691 0.17068 2.44402 0.787703
1509 1 1 3.07599 0.413582 2.28477 0.143272
332 1 1 5.10482 16.6611 1.54356 7.62787
215 1 1 1.12645 18.6415 5.56569 2.79787
7613 1 1 7.67239 0.529519 1.81696 0.804394
504 1 1 7.44452 16.9696 0.481113 0.315696
96 1 1 3.61967 1.54477 4.05216 0.835099
763 1 1 10.1631 16.2637 2.58071 0.693804
1675 1 1 5.4112 18.3427 3.02928 1.51518
1416 1 1 7.97799 16.9725 1.41058 2.63684
1196 1 1 10.7646 15.383 1.2955 0.673443
898 1 1 8.79396 16.5326 2.26596 1.31278
7452 1 1 11.2208 16.749 0.611219 1.14122
1339 1 1 13.1231 1.22258 2.21076 2.47707
980 1 1 11.1276 16.7973 36.3288 2.36086
1588 1 1 11.3812 1.14913 1.28146 1.3901
1589 1 1 14.0203 0.852488 3.50017 1.71672
505 1 1 12.114 17.481 2.10222 1.50799
7246 1 1 12.8888 17.1743 2.77269 0.458509
653 1 1 13.9612 17.4559 1.87722 0.0233941
1269 1 1 14.076 16.1722 2.61938 3.76339
1129 1 1 15.7926 14.0795 0.277377 1.22249
7744 1 1 15.2195 18.4882 2.68906 3.72114
1367 1 1 17.4495 15.9566 1.1766 1.03194
109 1 1 1.25204 1.91039 3.55222 0.364804
845 1 1 1.46325 2.51272 4.84216 0.149216
2089 1 1 4.49999 1.88875 5.27131 2.00901
547 1 1 5.35398 2.01175 1.39585 0.305982
7197 1 1 5.54173 2.31653 4.44692 0.74858
6777 1 1 5.73959 3.00582 2.02361 3.43575
7982 1 1 8.62229 17.7653 3.69808 1.24305
171 1 1 6.0629 17.4808 2.94101 1.02024
1734 1 1 9.58959 18.5952 2.56202 0.763171
1466 1 1 9.28096 18.3239 1.60492 0.983781
2204 1 1 11.1142 0.457317 2.71974 0.692858
7821 1 1 8.49946 17.7594 2.23354 0.554533
7539 1 1 11.3201 17.9606 36.6497 0.200628
2867 1 1 13.6108 0.260354 4.21111 5.76278
7422 1 1 11.7011 0.296182 4.94713 1.66442
867 1 1 15.5135 0.208457 5.31091 0.414871
1007 1 1 15.1596 0.913623 2.84726 6.96848
772 1 1 15.9051 1.16422 4.99187 2.88372
126 1 1 15.3946 4.33303 1.71785 0.786032
194 1 1 16.7694 2.63052 5.23004 1.69548
3242 1 1 17.7647 1.24737 2.34728 1.69296
7937 1 1 0.652105 3.39794 5.32567 1.2635
633 1 1 5.43953 3.24187 3.92779 0.556721
1738 1 1 1.23867 2.99625 3.90281 2.16111
2030 1 1 2.13867 2.1456 6.25344 0.464977
1365 1 1 3.90546 1.64258 3.01377 1.13799
1309 1 1 6.68798 16.7738 3.66714 1.17141
1488 1 1 7.50861 2.06008 4.15179 0.00106537
1543 1 1 9.06313 1.53787 4.57556 0.488555
1661 1 1 10.5909 1.12266 2.04462 0.60338
7535 1 1 9.70111 18.5752 4.16754 1.90158
189 1 1 6.99555 1.2166 4.47033 1.37697
2177 1 1 9.44419 0.663133 3.42922 0.0883213
544 1 1 9.15377 2.9104 4.17081 0.91749
1044 1 1 12.4359 1.38358 0.99427 2.45706
742 1 1 13.3412 2.60269 3.64631 1.72278
3071 1 1 14.9278 3.14409 1.61849 0.587486
7830 1 1 16.2933 0.68726 3.97638 1.79414
1354 1 1 17.0871 1.20017 3.33058 3.52573
7758 1 1 15.7362 2.54585 4.3259 3.32235
7423 1 1 15.399 17.8844 1.54462 1.63799
874 1 1 16.1953 4.00554 2.93718 2.35665
509 1 1 3.54352 5.70507 3.64081 0.454581
966 1 1 0.578932 5.6319 2.51011 2.08552
2033 1 1 3.16399 3.88406 4.11872 0.645774
2917 1 1 2.94743 6.84066 2.17502 0.243631
2559 1 1 3.77525 5.78826 2.2637 0.954617
7785 1 1 5.94006 3.65065 2.88251 1.83382
1348 1 1 6.05148 2.02179 2.5179 1.24003
7215 1 1 6.8784 3.71745 3.30141 1.60889
656 1 1 6.22175 1.39075 3.47455 0.812336
7924 1 1 8.39623 2.79559 4.75933 1.8987
661 1 1 6.97155 2.48873 3.35513 1.50758
1098 1 1 6.77772 2.47614 6.24002 2.23998
6477 1 1 7.42146 5.78539 4.12671 1.13671
1302 1 1 9.05442 4.79919 4.40235 1.66581
418 1 1 9.60898 3.79378 4.71074 4.20964
6060 1 1 9.93993 2.0307 4.41786 3.37487
6136 1 1 13.0397 3.47992 5.20978 0.5522
387 1 1 12.5186 5.1279 2.58855 8.21129
7185 1 1 12.3369 2.6967 2.94837 2.07763
636 1 1 15.1997 1.93551 0.814159 0.333258
1539 1 1 16.0834 4.92769 1.05587 3.68303
1422 1 1 13.3937 4.6838 3.35267 0.662617
1041 1 1 16.2335 1.4179 2.68634 1.5232
2202 1 1 17.9766 2.4623 2.19048 0.155246
7284 1 1 16.0937 7.05674 5.22447 1.92667
1374 1 1 2.70447 5.19535 4.85601 1.1108
7841 1 1 3.18135 8.33316 2.1074 5.0682
6026 1 1 3.46597 4.34742 3.04752 1.14943
3 1 1 4.83969 6.74528 2.05023 0.983553
82 1 1 7.77577 4.78483 5.3983 0.407185
985 1 1 5.97061 5.9459 4.3637 0.0673613
7123 1 1 7.4249 3.60807 4.6091 2.57159
533 1 1 7.30385 6.45572 5.5049 0.0576364
214 1 1 7.44776 9.19222 5.82497 1.04166
7663 1 1 8.48412 4.08927 5.10563 0.64413
1291 1 1 11.2851 2.79169 3.57995 0.577709
7644 1 1 11.108 7.53066 3.5293 0.443989
588 1 1 13.29 3.51629 4.07179 0.879042
3586 1 1 14.6464 6.31399 3.87374 2.43769
7725 1 1 12.6649 5.56115 3.7036 1.49326
4139 1 1 18.4907 3.86919 5.08405 0.638971
928 1 1 1.10835 5.42572 4.36957 1.94538
7646 1 1 15.3212 7.46857 7.23948 2.27514
7992 1 1 0.103445 7.34162 5.12039 1.42173
1002 1 1 4.83607 5.74757 3.98942 1.40104
6804 1 1 18.7502 4.80181 5.72401 0.387132
2162 1 1 2.1129 7.08407 4.03593 0.902626
153 1 1 4.29136 8.14817 4.89183 0.241645
5747 1 1 7.77245 4.29625 3.15034 0.892546
2608 1 1 6.02065 6.70127 2.98421 0.358583
117 1 1 8.70007 6.24836 5.63637 0.501462
2311 1 1 5.11023 6.12597 5.0268 1.10509
7683 1 1 7.36295 7.13641 3.86596 0.588798
2589 1 1 8.63232 7.74136 4.74923 4.17435
553 1 1 9.85658 5.22599 4.88103 2.45151
7782 1 1 13.0659 5.20542 5.10015 0.402979
1784 1 1 12.3402 7.24906 1.40845 4.16723
1460 1 1 11.774 5.81016 5.08511 0.823444
1927 1 1 13.9976 4.94196 5.45482 3.75299
591 1 1 14.2551 6.00008 6.20079 1.71235
240 1 1 14.8151 5.55613 5.36193 0.296872
102 1 1 16.6409 6.93955 4.35873 3.70667
2798 1 1 15.6484 8.01699 4.69164 1.88919
1728 1 1 0.0513734 9.43958 3.36105 1.71198
107 1 1 1.81323 9.20262 4.64633 0.144661
667 1 1 16.3998 8.93035 4.95944 1.1907
7242 1 1 3.75493 8.05825 3.88603 0.234732
7641 1 1 0.034107 8.96723 6.87987 0.545503
925 1 1 1.90408 8.30465 3.7825 1.05683
1717 1 1 4.28522 6.1174 0.961881 2.96434
5817 1 1 3.84116 7.52453 1.61779 0.758315
1217 1 1 8.34067 8.35663 1.54126 0.215647
404 1 1 3.95961 9.23044 5.47894 1.78356
1194 1 1 9.17273 9.76122 4.56295 2.69852
604 1 1 10.3927 7.03068 2.85443 3.59531
345 1 1 7.4706 9.89996 3.6407 1.09879
7538 1 1 10.258 8.08607 3.12798 2.39525
7322 1 1 10.8939 5.04791 2.93087 0.927404
216 1 1 10.5146 9.93037 3.74926 0.798356
1069 1 1 8.92915 8.2183 2.36727 0.728416
557 1 1 11.6836 8.08545 1.39465 1.65196
1833 1 1 11.6136 8.689 4.14517 2.38362
7739 1 1 12.6529 9.62615 4.79691 5.34309
6619 1 1 12.9171 6.21434 1.84075 3.65201
7756 1 1 13.3273 6.8466 6.36363 3.55279
7983 1 1 17.4 6.7955 5.00248 2.89966
957 1 1 14.9619 5.16143 6.30606 0.924152
622 1 1 16.483 8.08317 2.46356 1.65103
7795 1 1 16.0778 9.56426 2.85055 1.0477
2151 1 1 16.3696 8.57444 3.38527 0.440351
230 1 1 17.7451 7.70297 4.66111 0.582512
765 1 1 2.07135 10.2381 5.4154 1.298
626 1 1 3.69576 7.41827 7.73964 0.847387
478 1 1 4.64198 10.4211 5.4478 1.3362
842 1 1 4.66058 8.40571 3.85738 1.73386
7472 1 1 6.7466 6.39957 3.60857 0.996404
983 1 1 5.43401 7.24153 5.67115 1.31135
1105 1 1 11.294 12.1514 3.90466 3.67593
3068 1 1 11.5624 9.7018 4.15228 1.11523
3406 1 1 11.896 11.259 0.40671 8.8293
1802 1 1 13.6719 8.56396 3.95969 0.296795
2578 1 1 14.5663 11.508 4.53461 0.759381
1250 1 1 13.2357 8.30679 4.98405 1.61091
7470 1 1 16.7736 13.8856 3.06833 1.85473
1184 1 1 15.5626 10.2463 3.80315 0.730023
1677 1 1 16.9818 9.02529 2.63622 1.09343
1287 1 1 18.5015 10.8907 3.15494 1.18496
1082 1 1 1.91926 10.6936 6.85013 0.359785
1709 1 1 18.3279 9.32805 4.25296 0.270203
369 1 1 2.19711 12.1518 4.90124 1.48071
203 1 1 1.21259 13.5382 4.08101 1.43384
7541 1 1 2.90505 14.1783 6.68217 1.23664
834 1 1 1.00931 11.2496 5.74189 0.482931
134 1 1 5.60274 11.5665 5.1099 0.312472
6842 1 1 4.75617 12.3989 5.01446 2.64842
6975 1 1 6.68097 13.6039 4.51719 1.56246
970 1 1 6.72533 14.3378 0.817731 2.1123
1475 1 1 7.72127 8.50818 4.40664 0.670297
95 1 1 6.83989 11.5249 2.35864 1.51781
1968 1 1 9.491 11.534 3.68945 0.602793
6693 1 1 11.681 12.6133 1.28698 0.89778
7798 1 1 12.8069 11.2444 3.44443 4.29452
7531 1 1 11.8656 12.5657 3.13114 2.43859
7156 1 1 11.7333 10.8576 3.84561 4.55872
1848 1 1 12.5674 11.9473 5.49362 0.94424
38 1 1 14.8018 10.6436 3.05101 1.0436
1072 1 1 16.0319 13.1798 3.41151 5.96008
2638 1 1 17.9148 11.6824 2.79872 0.819041
1438 1 1 16.4089 10.6046 2.77568 2.82401
6563 1 1 2.88577 11.3354 2.27685 0.110605
1836 1 1 17.5392 12.189 1.69445 2.08331
1793 1 1 1.53267 12.1847 0.609116 2.1507
259 1 1 0.81327 13.6265 3.00997 1.9555
178 1 1 2.28042 12.8658 3.83902 1.4157
840 1 1 4.22338 12.7483 3.80384 0.357586
1264 1 1 6.29877 11.2298 3.43196 2.85353
487 1 1 7.80213 11.8626 3.3487 1.15547
7139 1 1 7.73215 10.5371 2.81715 0.427016
630 1 1 8.01277 10.7937 1.37551 0.244804
3108 1 1 13.0553 13.5438 36.5375 3.43256
7834 1 1 12.0314 11.8146 1.7143 2.2524
1904 1 1 13.0142 12.7954 4.71282 0.661425
1799 1 1 14.284 12.8083 5.91958 0.366147
451 1 1 15.2061 11.8672 0.57453 2.29592
1187 1 1 14.5953 14.7212 4.60061 0.276444
7089 1 1 17.1465 13.2542 2.14861 2.71877
7670 1 1 15.7435 14.8954 4.77323 2.80449
5605 1 1 2.08855 16.5197 3.40335 2.24997
6665 1 1 4.89583 11.3544 3.15926 0.68575
245 1 1 5.34725 13.0734 3.15187 1.38417
7811 1 1 4.25929 13.5698 3.1547 1.64666
481 1 1 6.52205 15.15 1.70372 4.10304
844 1 1 6.65253 15.7579 3.84897 1.84123
885 1 1 8.2297 15.3508 3.55945 0.860337
53 1 1 7.74723 12.4536 4.60014 0.581373
221 1 1 10.7769 12.3663 2.84222 1.10078
1295 1 1 9.67736 10.6867 4.21483 0.328833
734 1 1 10.4065 14.0072 5.90696 0.751379
7893 1 1 12.5355 12.7228 1.79315 2.01413
7040 1 1 15.1717 13.1262 3.93327 2.92779
7551 1 1 12.2605 13.8112 6.49566 1.22083
7180 1 1 13.5683 13.9644 6.07378 2.05268
1200 1 1 14.4362 16.1133 4.82133 1.26062
888 1 1 17.0158 13.6547 4.85788 1.07267
1676 1 1 1.70747 15.1164 1.44519 1.63368
854 1 1 18.0152 14.4783 4.41161 0.269712
6762 1 1 18.0817 13.9328 3.18779 0.887252
1340 1 1 0.96151 15.4341 3.16342 1.71296
7826 1 1 18.0841 16.5026 2.84514 2.20492
642 1 1 2.46951 15.9921 1.18368 2.77022
7840 1 1 2.61771 14.2192 2.62262 0.719333
7051 1 1 4.30294 15.9489 6.38999 0.577587
480 1 1 2.95869 17.9454 4.02085 0.749026
1505 1 1 5.76572 14.3476 4.11086 2.80565
1128 1 1 4.40002 15.8156 1.85413 0.902848
7174 1 1 4.63424 14.9662 1.2668 2.78253
800 1 1 7.03891 15.0835 4.64509 7.6715
1930 1 1 7.29431 15.662 5.61451 0.318903
1940 1 1 10.049 11.3784 2.62224 1.35142
6946 1 1 13.2619 14.5901 4.57949 0.870461
7678 1 1 7.21315 13.3637 1.9169 2.69311
7856 1 1 9.03998 14.4966 4.13706 2.12143
3078 1 1 15.0181 13.6702 5.57573 1.6146
433 1 1 9.37221 14.0272 2.54765 0.936029
1167 1 1 12.0618 13.6954 4.91205 0.620243