ITEM: TIMESTEP
1500
ITEM: NUMBER OF ATOMS
8000
ITEM: BOX BOUNDS pp pp pp
0.0000000000000000e+00 1.8820720577620570e+01
0.0000000000000000e+00 1.8820720577620570e+01
0.0000000000000000e+00 3.7641441155241139e+01
ITEM: ATOMS id mass type x y z v_temp
129 1 1 1.6 17.6098 37.1694 2.71085
7265 1 1 2.71938 0.882968 37.2699 2.16233
692 1 1 2.58207 1.87595 1.97179 1.22567
7267 1 1 3.64889 2.13347 36.6336 2.07078
7818 1 1 3.82391 0.0670593 1.14095 0.942249
7996 1 1 6.03362 17.2514 37.0599 1.58038
7535 1 1 9.37706 2.88691 2.56053 0.772853
1196 1 1 10.1146 18.595 1.85613 3.43802
1200 1 1 12.3695 16.3492 3.23879 2.35406
726 1 1 12.1456 2.53344 1.173 1.19768
6814 1 1 16.7471 0.879725 1.18314 0.934276
881 1 1 14.4599 18.7148 1.10812 0.80644
1269 1 1 17.2638 18.6024 37.1223 2.13712
511 1 1 15.2315 2.05803 2.94942 7.19739
576 1 1 17.7515 3.58216 36.8252 4.21515
351 1 1 1.01534 1.90158 0.513215 1.58323
7647 1 1 0.289366 18.6311 35.4586 3.17135
6648 1 1 2.08538 4.32838 2.51428 0.300486
774 1 1 1.53409 3.16955 1.91399 0.283257
7226 1 1 4.36446 1.9752 1.6723 2.74642
547 1 1 4.45168 1.00681 1.29997 1.60715
6076 1 1 6.12652 1.98508 1.99067 0.108656
7503 1 1 5.7237 3.35524 1.30712 0.288873
7982 1 1 8.07055 1.04365 4.46902 1.82541
6986 1 1 8.94176 18.5712 1.99626 0.31668
6855 1 1 8.17595 2.93046 37.3405 0.494088
7032 1 1 9.32517 2.60279 1.06333 1.21001
1806 1 1 13.3601 3.51127 0.580336 1.3324
593 1 1 10.0476 2.13302 0.1379 0.271049
1333 1 1 11.6798 1.62915 0.354958 1.50776
7669 1 1 12.4608 0.750523 2.18714 1.98318
1315 1 1 16.5917 2.1761 0.90183 0.999142
914 1 1 13.8199 0.226044 3.53869 4.98216
7301 1 1 15.0375 2.61518 37.5737 0.36076
1473 1 1 16.0007 2.46804 2.09954 0.457533
6868 1 1 16.525 2.73032 37.5775 2.08083
18 1 1 0.273955 1.23286 1.25462 4.61315
7440 1 1 16.4689 0.78771 2.3748 1.79832
47 1 1 18.5089 3.78964 2.67847 1.07001
447 1 1 18.6191 6.16823 37.173 0.383954
508 1 1 2.12647 2.9772 1.19118 4.34975
6006 1 1 0.734549 3.67999 36.2195 0.385953
7660 1 1 4.02609 3.63812 0.452837 0.462435
7718 1 1 5.92424 3.57326 0.116429 1.68987
1309 1 1 6.75113 4.12783 2.82809 1.07351
7332 1 1 7.57671 1.62091 2.41781 0.50459
7653 1 1 7.40127 3.58894 1.94896 0.586994
6477 1 1 8.46745 1.83743 1.1995 0.384365
7666 1 1 10.4721 4.43278 2.43385 0.313386
73 1 1 12.7805 2.65847 0.0497311 2.01295
1664 1 1 14.5612 3.73343 0.745394 0.464733
7911 1 1 13.6144 3.03465 37.1948 3.11175
271 1 1 13.3517 4.4796 1.007 1.4084
515 1 1 12.4403 1.09372 0.972889 2.43829
966 1 1 15.6522 2.73146 0.930755 1.22438
7841 1 1 18.7688 3.39124 0.655449 2.99257
366 1 1 1.63351 4.97498 1.44221 2.36173
7937 1 1 18.1643 4.36955 1.27874 1.01732
7507 1 1 0.465294 5.25513 2.05844 1.11622
3 1 1 4.24421 4.85037 1.94678 0.836786
7879 1 1 5.05052 4.99589 0.32643 4.38168
429 1 1 6.6597 6.15338 0.48684 0.366726
1850 1 1 6.56442 4.21683 1.63922 1.75616
529 1 1 6.74293 5.81382 2.27943 2.20914
7644 1 1 12.5588 6.23716 1.42458 0.121726
6942 1 1 5.12612 5.07946 2.90437 0.56802
7625 1 1 11.4427 5.30699 2.98157 0.705358
6703 1 1 10.0198 6.78019 2.21615 1.03153
7466 1 1 9.90079 4.80725 36.3066 4.60146
1329 1 1 13.7746 5.68714 37.6224 1.10725
6872 1 1 14.5198 1.46635 2.41083 1.52758
7432 1 1 16.8617 5.27079 1.32254 4.79556
7086 1 1 1.36691 1.55511 35.325 1.66054
7641 1 1 2.14233 8.04458 2.29611 1.25595
6848 1 1 2.78932 7.05524 2.27688 9.70786
354 1 1 3.49597 7.59182 0.716638 0.192756
1045 1 1 3.50152 4.81199 1.31602 0.628516
945 1 1 6.59374 7.47507 0.350792 2.12756
7663 1 1 5.83028 6.11072 1.42325 1.42532
193 1 1 8.82122 4.81169 1.15497 0.536797
796 1 1 8.46471 7.07824 3.29659 0.612809
543 1 1 12.3592 6.8325 3.49117 2.86597
6657 1 1 11.5252 7.82002 37.4544 3.07884
7348 1 1 12.1439 4.89029 1.57202 2.5631
91 1 1 14.5215 7.29191 1.48489 1.4223
276 1 1 15.2365 6.744 37.2314 3.68692
7972 1 1 14.2451 6.93417 2.86126 5.20203
79 1 1 16.2895 9.43693 2.79779 1.25849
7479 1 1 15.6194 5.22613 36.4738 1.05814
72 1 1 0.164326 6.7121 1.07971 0.561152
6762 1 1 1.02391 8.64971 1.17603 1.12616
6705 1 1 2.33172 8.19366 1.15266 4.15921
158 1 1 3.07583 8.35329 0.159532 0.629891
7424 1 1 1.76452 7.41793 37.4287 3.22597
7047 1 1 4.13454 8.46108 0.158355 0.4128
997 1 1 5.38243 6.26517 0.0931766 0.014846
925 1 1 5.97353 6.50396 36.587 0.191905
7803 1 1 4.46205 6.71911 37.622 2.06406
6235 1 1 7.94733 9.36455 37.0743 1.0555
6874 1 1 7.73825 9.08884 0.798431 0.159814
7096 1 1 7.12346 8.36468 1.1678 1.4378
1820 1 1 7.68184 6.18378 36.0704 0.358948
214 1 1 9.20587 8.18871 1.45782 4.79889
6619 1 1 10.7657 7.16104 0.669846 2.26334
181 1 1 12.3952 8.70382 1.60491 0.767764
86 1 1 15.6252 8.95905 36.5348 1.23168
762 1 1 15.8478 7.28923 1.25759 1.17283
617 1 1 14.4635 6.34134 0.635884 1.91435
108 1 1 17.5484 8.07022 2.97262 1.44847
884 1 1 1.57239 9.67771 36.1272 0.293976
736 1 1 18.7627 9.27634 36.5358 0.43518
146 1 1 1.65746 11.4853 35.428 0.199563
5397 1 1 0.252017 9.95385 0.496605 0.452453
442 1 1 2.04521 9.70017 37.5332 3.01156
7721 1 1 1.07976 10.2111 1.92183 1.51826
6126 1 1 5.21258 10.5328 1.36298 0.230191
538 1 1 3.17668 7.96148 1.69054 2.53499
178 1 1 3.54498 8.67603 1.17023 4.45147
5813 1 1 6.03539 8.51138 36.5218 3.68362
7326 1 1 5.41239 8.48946 37.5803 2.12815
1046 1 1 6.73472 10.316 0.899306 0.601281
721 1 1 10.351 11.1475 1.05571 1.67303
1224 1 1 8.20085 8.77051 1.80535 1.59705
570 1 1 7.52089 6.20545 1.02612 2.07831
6470 1 1 10.2861 9.22015 36.9868 0.442205
6933 1 1 11.5408 8.54279 1.02061 1.07833
6527 1 1 10.992 11.6711 0.378608 0.798637
6693 1 1 12.9256 9.38485 2.53728 1.38664
349 1 1 14.6463 9.70482 35.9786 1.06959
1349 1 1 15.1942 9.89458 1.19316 2.16104
253 1 1 12.3868 6.0982 0.19856 7.67801
1074 1 1 16.1861 8.44321 0.823866 1.30315
877 1 1 17.5047 9.19079 37.0468 4.83548
712 1 1 16.8355 10.0414 2.08439 0.774747
7913 1 1 15.529 10.0542 2.18686 1.18299
1036 1 1 17.8607 8.68653 1.73669 0.0474348
889 1 1 18.1278 10.897 37.3335 1.67154
1093 1 1 1.77494 9.84171 0.841314 4.44997
1280 1 1 2.32262 10.3638 1.64098 0.518308
7011 1 1 4.37718 11.6919 1.29743 0.4667
7144 1 1 5.30791 9.36293 36.4977 1.99299
1172 1 1 5.80566 10.4013 0.306394 0.525775
7621 1 1 5.06397 8.48077 0.860071 0.723981
6842 1 1 7.87156 10.6621 1.11681 0.572184
7065 1 1 8.63234 9.93292 0.719129 2.84406
10 1 1 7.45634 11.2636 2.07613 1.53895
7740 1 1 9.59219 10.1569 1.34087 3.01001
6750 1 1 13.8815 12.0992 1.01014 1.95341
574 1 1 13.4926 11.1025 0.775753 1.08194
7635 1 1 13.4666 10.8887 37.3156 0.597139
423 1 1 15.6216 11.3575 1.89933 2.03982
501 1 1 12.7411 12.0614 36.9415 0.374669
683 1 1 14.4134 10.4326 0.465683 2.00755
669 1 1 16.9115 7.49171 1.10424 0.869878
247 1 1 17.1503 8.80102 0.903603 0.20675
5857 1 1 18.1402 9.77129 0.322457 0.182056
1528 1 1 18.077 11.7739 1.93201 0.899495
1350 1 1 2.51837 12.5067 37.3019 3.17242
7060 1 1 1.60427 11.5673 1.88055 3.94904
7174 1 1 4.56436 12.6107 0.516623 0.948741
1681 1 1 6.2071 12.7199 1.69938 1.54242
584 1 1 5.47349 11.7514 1.63904 2.43679
365 1 1 8.36652 12.119 2.47404 1.49518
955 1 1 7.57443 11.1171 0.104393 0.335598
38 1 1 11.4559 11.0766 1.07675 3.60111
255 1 1 9.87633 13.6429 1.40597 2.84026
6752 1 1 10.8249 12.7103 37.4411 3.05669
6567 1 1 11.8034 12.092 36.7273 1.27795
286 1 1 12.0681 12.5809 1.23785 1.2153
7545 1 1 12.9718 13.109 1.0841 1.4958
7634 1 1 13.2928 12.0053 0.133775 1.72057
237 1 1 13.5096 12.6871 36.5692 1.30257
7483 1 1 16.1757 10.0536 37.5654 1.79156
6599 1 1 16.1503 9.32418 1.55023 3.23304
7089 1 1 17.2886 10.7692 1.17777 0.0944796
579 1 1 17.6854 13.2716 37.3947 0.0483629
1234 1 1 17.4693 11.759 0.265329 2.3177
7555 1 1 1.22854 13.54 0.0170662 3.63628
6788 1 1 5.4499 12.2585 36.805 0.149255
8000 1 1 3.51452 13.3952 0.489628 0.975371
6232 1 1 4.20347 14.1757 1.27917 1.94278
1995 1 1 6.72274 14.6984 0.283673 0.826924
215 1 1 5.01786 15.9252 2.40282 1.87603
815 1 1 5.89472 13.3636 0.863604 2.18204
1908 1 1 9.51919 13.6597 0.401918 3.6497
5866 1 1 9.29944 14.8687 1.67174 0.329708
53 1 1 10.5982 13.5627 0.594274 1.64402
6686 1 1 11.805 13.913 1.0675 2.94453
7888 1 1 16.4177 13.896 36.9659 0.680362
7390 1 1 15.3112 14.9421 0.0600021 3.29631
234 1 1 17.1806 13.4114 0.598506 1.32204
375 1 1 16.2944 14.1255 1.42558 4.49507
7826 1 1 17.6699 14.4453 0.60635 0.876075
634 1 1 15.3322 11.2184 0.726832 1.31425
7947 1 1 18.7093 13.842 0.29714 1.66832
7968 1 1 1.43615 14.4125 36.9255 0.948166
1529 1 1 0.886601 14.1034 1.71419 0.980269
559 1 1 18.5918 14.6281 2.15179 0.200991
704 1 1 5.64777 13.1812 37.3 0.00902836
7854 1 1 5.04897 14.5514 0.530099 0.638585
769 1 1 4.92515 13.1862 1.32594 1.44581
6379 1 1 7.22471 12.1968 1.67613 2.97574
7926 1 1 3.36318 16.4578 0.185036 0.108521
504 1 1 5.36777 15.7661 1.47636 1.66153
6600 1 1 5.8471 16.659 1.85369 1.29147
1150 1 1 9.29836 14.029 36.9943 0.292127
7457 1 1 9.93832 15.9396 0.4323 0.899442
377 1 1 9.54667 15.8727 1.95961 0.911934
746 1 1 17.078 15.5989 36.7983 2.38103
1042 1 1 16.5971 15.3748 1.21386 1.43514
629 1 1 15.6428 14.9646 1.56911 2.53559
558 1 1 2.65212 15.237 0.402145 0.575422
7869 1 1 17.1059 14.896 36.0035 0.530065
7951 1 1 17.4289 16.3354 0.733074 1.14052
7604 1 1 2.75554 0.739904 1.01014 1.98117
1485 1 1 3.26693 17.1081 35.6215 0.81727
1481 1 1 3.51318 17.0161 1.13114 0.171335
775 1 1 4.89401 17.7803 36.8418 1.12064
7569 1 1 5.86129 15.7756 0.625399 0.261966
7206 1 1 7.23128 17.2308 37.1728 1.03224
6914 1 1 7.59603 16.9743 2.39427 3.56311
227 1 1 10.8392 17.3069 1.64866 1.42215
708 1 1 11.0747 15.9917 37.4782 2.70274
7550 1 1 10.4683 18.6891 0.385853 1.17747
7341 1 1 12.3381 16.4937 37.2451 0.813859
1110 1 1 12.6233 15.9064 0.503192 7.45907
22 1 1 14.9481 17.8734 0.333983 0.46271
356 1 1 13.1655 18.0884 1.03333 0.274089
7202 1 1 15.421 16.0982 1.71269 1.58005
7999 1 1 16.4488 16.6122 1.52022 1.20017
6845 1 1 18.3599 18.5009 37.1145 0.850116
6777 1 1 2.25217 0.129304 0.205347 0.739256
194 1 1 1.0757 0.371044 37.2643 0.331739
6713 1 1 2.30029 17.2665 0.406289 1.41929
6835 1 1 4.57166 18.5236 0.631369 0.677422
1573 1 1 5.09165 0.0652423 1.97344 2.38782
228 1 1 6.8316 16.915 36.0506 0.944241
3576 1 1 7.98825 0.0260903 37.2001 0.877376
1206 1 1 8.76602 17.745 0.868242 1.8825
1139 1 1 9.80723 0.415 1.16562 0.355556
2020 1 1 11.663 17.5273 35.7549 1.55202
1339 1 1 11.1917 0.539902 1.63213 0.327079
338 1 1 11.2631 17.9748 0.913483 0.931078
6636 1 1 15.7949 17.3879 37.5828 1.30794
7478 1 1 18.1617 0.706473 0.171938 1.71654
7261 1 1 17.8744 18.4656 1.10916 0.609374
2367 1 1 18.1309 16.4598 37.3252 1.41933
33 1 1 17.6051 18.4916 35.1477 2.7278
1999 1 1 17.5546 0.560905 2.23413 1.20585
1198 1 1 1.93762 0.0843233 1.62898 0.126825
643 1 1 2.77538 0.571863 2.29171 2.51765
2347 1 1 6.09008 18.3588 3.77943 1.53765
6152 1 1 3.44658 1.34397 1.8621 0.309308
175 1 1 8.75283 0.81026 1.28686 1.7088
895 1 1 6.34085 0.649013 3.2683 1.44911
633 1 1 7.12986 1.09242 3.93874 0.568117
1446 1 1 7.26172 0.153094 1.09039 0.560056
1416 1 1 7.44162 18.2624 0.24776 0.354579
94 1 1 9.669 1.1131 2.07035 0.561587
1749 1 1 11.3812 0.0954459 2.61016 1.08461
824 1 1 9.87449 1.66954 3.18359 1.56336
6079 1 1 10.1676 0.114925 3.23172 1.96793
7745 1 1 12.1901 18.4665 1.41906 0.704943
383 1 1 15.2818 1.9215 1.49381 2.38389
677 1 1 13.9753 2.6927 0.508578 1.29933
608 1 1 1.1669 18.0013 2.43988 1.87756
31 1 1 1.04684 3.56583 37.5783 0.676405
1348 1 1 2.62945 1.77255 0.825852 3.15887
427 1 1 0.898455 4.66007 5.34185 1.53724
155 1 1 4.12597 1.82015 2.88875 0.59761
7903 1 1 1.30428 2.39147 2.96569 0.522628
109 1 1 3.86832 0.777877 2.6583 0.479546
406 1 1 3.21824 3.20004 2.3799 0.12867
936 1 1 3.7723 3.88569 1.79354 2.77797
2126 1 1 7.40695 1.80282 4.58632 1.34902
7539 1 1 10.8066 2.75976 3.89845 0.391094
1993 1 1 10.5709 0.877989 2.55972 1.68176
418 1 1 10.2717 2.09808 1.29338 2.14118
1213 1 1 12.0932 1.74635 1.87294 0.73549
100 1 1 10.9013 2.63959 0.419029 1.40804
1308 1 1 13.0653 0.400621 1.47852 2.4087
1007 1 1 16.8575 18.6021 1.93718 3.15608
1344 1 1 16.1784 1.6875 2.93234 2.02374
206 1 1 17.0207 2.75654 2.44209 2.16385
7088 1 1 17.4249 1.58889 1.52788 1.05189
7980 1 1 17.17 1.57845 2.5534 2.41011
7646 1 1 0.785095 3.56106 2.43935 0.279155
6995 1 1 0.827373 5.2705 3.12538 0.551485
875 1 1 3.05299 3.91758 0.885846 0.601296
1409 1 1 2.32542 5.26939 2.13109 0.804882
879 1 1 1.35349 3.76606 3.34481 0.120395
1237 1 1 5.35527 2.46745 2.7259 0.7888
7251 1 1 2.49447 2.3886 2.98113 1.25805
580 1 1 6.5013 3.09665 2.30429 0.776915
125 1 1 5.47268 3.58722 3.39057 0.403187
623 1 1 9.22479 5.70812 2.76521 3.84148
656 1 1 4.79978 2.86728 1.82548 1.83155
385 1 1 7.21057 2.90049 3.07642 1.78455
6659 1 1 8.14615 2.82348 2.23048 3.01334
934 1 1 10.3642 2.35445 2.54881 1.46942
3337 1 1 10.4177 5.11186 3.40248 2.31037
7588 1 1 10.8581 3.17953 1.32959 2.00446
505 1 1 13.1396 2.26086 1.16277 4.86309
7719 1 1 14.0579 5.49247 2.64858 0.940153
1377 1 1 13.9713 3.41182 2.24573 0.451266
1422 1 1 16.3012 3.68095 4.56115 0.61851
1183 1 1 14.7957 2.98091 1.66302 0.197741
651 1 1 17.4686 3.75338 1.9609 0.871298
7998 1 1 15.7685 5.14602 2.08471 0.853434
314 1 1 17.516 4.8056 0.474466 2.84558
802 1 1 17.9155 4.67522 2.50038 1.02337
1287 1 1 0.471269 5.36341 4.44674 1.07397
190 1 1 3.51455 6.32165 0.918425 1.90066
2824 1 1 4.32517 3.92517 3.49186 1.99914
1714 1 1 3.21882 7.80807 2.73859 2.08729
7631 1 1 4.39284 6.27798 1.59867 1.71426
1717 1 1 3.2502 5.62142 2.2756 0.353155
1977 1 1 3.38561 5.94378 3.67366 2.45459
661 1 1 6.09277 5.07655 2.67615 1.17577
6922 1 1 9.37527 4.7082 0.194791 6.0672
1076 1 1 8.58309 5.64894 0.398853 2.17834
6136 1 1 7.89297 6.05209 2.49198 1.83021
492 1 1 11.8446 6.55317 2.59519 1.1766
1051 1 1 12.8206 5.88691 3.00128 0.891603
582 1 1 8.51596 5.65106 1.59053 2.05762
2221 1 1 13.0691 5.0212 2.23874 1.97171
7185 1 1 14.9075 5.23043 1.01201 0.772333
6241 1 1 15.458 3.81279 1.27182 0.698615
444 1 1 0.526703 4.95132 37.0669 1.43534
6975 1 1 2.13103 9.22823 1.77704 0.457234
1562 1 1 0.803245 6.21861 2.05987 1.5909
230 1 1 18.4136 8.55981 2.67395 1.54615
7659 1 1 2.0151 6.1312 2.73166 3.44169
7738 1 1 4.11907 7.40358 2.06779 0.25294
7651 1 1 2.58503 6.69693 4.09296 0.112988
7215 1 1 5.2476 7.33134 0.806613 0.769953
1405 1 1 6.68919 5.58608 5.14125 0.303869
2348 1 1 9.70091 4.37497 1.69001 2.10998
1194 1 1 9.03364 8.64333 2.92448 1.09649
140 1 1 12.99 7.63991 1.99406 0.135729
469 1 1 14.4135 4.7688 3.88602 2.50488
1193 1 1 13.6113 6.84965 1.99384 2.43823
1274 1 1 14.7533 7.87958 2.67669 2.9164
2197 1 1 16.3683 6.55784 37.462 0.880357
223 1 1 15.6438 5.75576 0.547426 2.59427
7358 1 1 16.6835 5.83003 2.93206 0.689717
6675 1 1 18.815 7.19311 2.54538 1.54934
1596 1 1 1.21444 7.55619 0.903622 0.345915
1917 1 1 1.94159 9.29459 3.06411 0.416373
926 1 1 0.491569 8.0379 1.91399 0.239807
7791 1 1 2.54429 8.55088 3.79053 0.402761
7966 1 1 2.56108 10.1028 2.88982 0.537638
5817 1 1 4.25577 5.44669 1.01089 1.12567
1002 1 1 1.9781 7.10885 2.98113 0.55531
626 1 1 5.75306 7.98016 2.91913 0.350567
615 1 1 6.40997 8.08484 1.85522 0.809737
7643 1 1 7.2118 6.90938 2.79048 0.515234
1427 1 1 5.43442 7.61773 1.7671 0.779656
568 1 1 7.71896 7.7809 2.04737 0.679866
7748 1 1 8.67354 7.51321 2.17903 4.0307
6538 1 1 12.1501 8.29634 2.65621 0.711274
188 1 1 9.9923 8.45621 2.37902 4.41012
1069 1 1 12.7554 10.6253 1.5806 1.4062
285 1 1 13.4493 8.26492 4.61246 0.165682
7021 1 1 13.4044 9.79388 1.04666 2.88526
7983 1 1 15.1349 8.82959 2.0925 0.864188
550 1 1 13.5389 7.93556 37.615 1.25885
7717 1 1 17.8931 5.52106 1.30744 0.466538
1318 1 1 0.641514 8.48293 0.0410127 0.299254
6875 1 1 17.4521 9.99231 3.86989 0.943681
7280 1 1 18.027 6.34161 2.52932 0.930339
107 1 1 16.5808 8.18138 3.79425 2.50203
2110 1 1 1.08375 9.0803 3.86461 2.27387
481 1 1 3.21307 10.6473 1.06093 2.19976
750 1 1 2.67264 10.3582 0.250596 1.4582
7482 1 1 4.41341 8.86001 3.95228 1.25527
1301 1 1 4.37222 8.46216 1.99132 2.55675
6987 1 1 5.49801 9.48817 1.85742 0.956716
1547 1 1 6.05187 8.43796 0.793145 1.13249
7335 1 1 6.67787 10.1462 2.42117 0.422618
1001 1 1 6.99609 9.06474 2.22305 1.22193
2177 1 1 9.57567 5.75165 1.03133 0.579046
7002 1 1 7.88076 9.78006 1.80268 2.82862
7943 1 1 10.4176 9.32937 2.12662 3.58434
2244 1 1 11.4973 8.81106 2.0264 1.58059
6497 1 1 11.4145 9.56035 2.66371 0.0842852
6463 1 1 10.6945 9.52111 0.490521 1.15053
6669 1 1 14.1352 8.38869 1.37675 3.40849
973 1 1 10.9185 10.1157 1.68949 3.17755
7851 1 1 17.2061 8.98171 3.76918 3.1087
790 1 1 15.8903 10.2813 3.16826 0.206817
6569 1 1 17.7533 9.78591 1.65118 0.690874
967 1 1 3.91207 10.4452 0.318964 2.11577
863 1 1 1.44631 10.0151 3.7426 0.220171
1790 1 1 6.29029 11.2506 2.00495 0.926577
1417 1 1 5.7755 10.3681 2.91825 1.2566
1542 1 1 7.95465 10.1956 2.78648 0.67852
232 1 1 12.4046 11.7527 0.559612 0.457189
1107 1 1 10.7467 8.1289 1.70026 0.137832
7984 1 1 10.5022 12.0884 3.06618 3.62605
7156 1 1 11.0683 10.473 2.64223 2.87196
653 1 1 13.7394 13.067 2.44102 1.95702
296 1 1 14.8305 8.88064 0.955409 2.10018
6590 1 1 14.833 12.1985 0.553759 0.929243
6939 1 1 12.5045 12.4708 2.66561 0.435573
84 1 1 15.6678 10.4846 4.72454 1.23624
386 1 1 12.0819 11.1693 2.931 4.2035
7470 1 1 15.8123 9.48355 4.07562 1.75814
818 1 1 15.0972 10.8067 2.84725 0.416171
7800 1 1 17.1991 10.9745 2.35656 0.395913
7845 1 1 1.46509 10.6172 4.41135 0.128408
1360 1 1 0.181161 9.7133 1.82924 0.0624829
259 1 1 18.343 10.8117 1.81561 1.2596
7811 1 1 0.780398 12.4798 1.79144 1.15738
340 1 1 2.86931 11.5924 1.28878 1.24154
6646 1 1 3.4884 12.5148 0.935117 0.30586
7805 1 1 2.53439 11.4489 37.1541 2.37166
773 1 1 1.29285 12.0136 0.806911 2.48694
834 1 1 3.88484 12.3747 2.02007 0.67318
7248 1 1 5.3242 12.7562 2.18314 1.80997
290 1 1 5.76359 12.5399 3.56796 2.2073
7704 1 1 9.23201 11.0388 2.8517 0.195657
1165 1 1 7.02058 11.9494 3.14481 0.319075
6946 1 1 9.28585 12.1813 3.24926 1.62927
4198 1 1 11.6358 11.9316 2.24647 0.457277
2814 1 1 11.9261 13.1126 2.15966 1.82912
7444 1 1 14.8619 12.7635 2.5975 0.268653
7867 1 1 13.5058 11.4751 1.84403 0.233282
1971 1 1 17.9877 12.7024 0.645676 0.970988
7855 1 1 0.559248 12.7094 0.68201 0.909911
7772 1 1 0.938274 10.9833 1.01954 0.348898
245 1 1 1.16641 12.1807 2.77586 1.08135
6650 1 1 2.85086 13.5025 2.38042 0.203151
7056 1 1 3.77966 13.2658 1.4903 1.36052
7610 1 1 7.2331 12.6909 3.98257 3.49114
452 1 1 6.57436 13.6208 0.1143 0.317802
1144 1 1 8.33943 11.8411 1.24779 0.495802
1448 1 1 7.07552 12.9838 2.30455 0.302562
1210 1 1 7.6234 14.0808 0.917435 0.0665721
1178 1 1 7.84277 12.9069 2.85908 1.92896
6632 1 1 8.05766 13.5309 4.13879 0.416705
1848 1 1 10.2242 14.6443 3.88101 0.999005
1103 1 1 10.9433 13.6437 1.71841 1.74735
6824 1 1 11.6882 14.1362 2.43475 2.24503
1187 1 1 14.0861 13.5782 3.44572 2.83881
1143 1 1 16.9919 12.7587 2.54672 4.45274
7853 1 1 14.4034 14.5305 0.374419 0.111264
393 1 1 15.7473 13.1842 0.508033 0.240123
7887 1 1 0.999568 13.2457 2.48546 0.142644
1604 1 1 18.4924 14.2398 5.07273 2.53823
757 1 1 1.64092 17.7678 1.44448 0.691716
1509 1 1 2.51322 17.409 2.11604 2.39148
7957 1 1 2.60695 15.2811 1.70225 3.59888
6243 1 1 3.50668 14.146 36.6943 3.4629
445 1 1 3.83244 13.054 2.83058 1.36654
399 1 1 4.87662 12.7086 2.99159 1.5473
1527 1 1 5.72085 14.8841 1.2768 2.01022
6851 1 1 9.34068 16.9815 0.543428 1.70289
902 1 1 7.96141 15.1714 2.45565 2.05122
829 1 1 8.04052 13.0855 1.44438 2.89521
7040 1 1 10.3434 15.9874 1.39839 0.499112
2661 1 1 10.177 14.5641 4.85368 1.88915
3108 1 1 11.5813 15.7032 3.75795 1.66085
6723 1 1 12.783 14.2714 1.02817 3.44514
389 1 1 13.8014 14.6272 1.89088 3.16712
2345 1 1 14.9549 12.6915 37.3049 0.518406
7548 1 1 15.905 12.1577 1.01913 4.39656
2287 1 1 14.537 15.4825 0.786121 1.80484
1439 1 1 14.1952 17.1671 2.50125 0.68745
1638 1 1 17.7019 15.2459 1.86697 0.683531
785 1 1 4.17933 17.4201 3.72352 1.55421
328 1 1 0.449473 17.0232 2.53346 0.132462
844 1 1 3.37747 15.9331 1.683 0.231702
332 1 1 3.43378 16.9308 2.39071 3.3358
6459 1 1 4.05992 14.2314 2.35716 4.47196
7613 1 1 6.43832 18.5138 0.118398 1.86808
728 1 1 5.72734 14.9111 3.71024 1.48082
7856 1 1 7.72676 16.7018 3.52659 0.6608
1432 1 1 6.62579 14.8082 2.02444 1.09384
1582 1 1 8.93519 16.6622 1.8086 2.16825
854 1 1 11.5044 15.4477 2.33718 1.04954
416 1 1 10.0024 16.6192 2.60394 1.87481
343 1 1 10.1177 17.9079 1.08645 0.434431
7149 1 1 11.5636 16.6183 1.92408 0.941571
1904 1 1 12.6255 15.2226 3.17301 3.74967
1406 1 1 14.9313 14.7905 3.40828 2.14837
40 1 1 15.152 16.9906 2.1167 1.30401
2409 1 1 17.2159 14.7591 3.11443 2.18972
5999 1 1 18.4843 16.0679 2.29807 2.22452
1634 1 1 1.58432 16.9635 3.62721 5.59359
318 1 1 2.6869 17.9172 37.3368 3.01477
686 1 1 2.3939 16.5012 1.70712 0.257826
1729 1 1 4.18497 17.7592 1.78732 1.904
6866 1 1 6.72012 17.1585 2.01181 0.314619
1328 1 1 7.18964 18.0019 2.52724 0.730854
7785 1 1 6.28148 0.40097 2.04646 0.146488
605 1 1 8.36391 16.7079 0.923914 2.35703
1785 1 1 10.4836 17.9783 2.59715 1.15025
7230 1 1 10.7464 16.8555 4.42518 3.19207
6673 1 1 10.2914 18.0137 5.08608 2.03555
696 1 1 12.4017 17.3728 1.59563 0.092334
841 1 1 11.2443 17.2574 2.73884 0.853869
2270 1 1 13.932 18.4058 2.34028 1.2181
273 1 1 13.4612 18.2777 36.886 0.437696
859 1 1 16.8699 17.3442 0.675994 1.14941
180 1 1 15.8447 18.0251 2.44255 0.774942
1186 1 1 15.4461 0.0491672 2.13203 2.69412
7930 1 1 1.2331 0.748305 0.562501 0.391019
7188 1 1 18.2668 2.57165 2.83352 1.81085
1926 1 1 0.567161 15.8372 3.5007 0.962573
7938 1 1 0.728559 2.41863 1.36837 2.90821
7934 1 1 3.88584 18.4356 2.70082 1.21435
489 1 1 1.91024 0.843867 2.70839 1.28769
3146 1 1 3.37652 18.3725 3.88892 2.35292
1930 1 1 5.27114 0.337953 3.24452 1.5451
1140 1 1 6.14635 18.1752 2.56795 2.96899
7122 1 1 3.25223 17.7228 4.75797 1.27895
1331 1 1 4.42698 18.3671 3.87106 2.26455
6321 1 1 4.95875 1.47048 5.32133 1.70459
1168 1 1 7.31867 0.00223438 3.16608 0.810129
497 1 1 8.24149 0.213889 3.98235 1.76458
566 1 1 8.18931 0.459421 2.26768 2.31983
1658 1 1 10.6801 18.0781 3.71352 0.974142
700 1 1 11.0396 1.71501 3.05934 0.287986
1708 1 1 9.17819 0.117187 4.34358 0.219165
906 1 1 11.8033 1.24019 2.89607 0.591219
2106 1 1 12.0434 17.774 2.57933 2.0974
871 1 1 13.319 0.175888 5.63685 0.759352
990 1 1 13.0404 18.7893 4.44546 2.56708
787 1 1 1.10297 17.9717 3.51083 2.71324
982 1 1 16.2624 3.17038 3.62309 0.0307066
7950 1 1 12.1738 18.5856 3.48367 1.15162
1223 1 1 15.7956 1.87083 3.94198 0.154293
894 1 1 16.7229 1.0113 4.33338 1.48629
1265 1 1 17.8121 0.352843 3.67398 0.909026
915 1 1 3.03166 1.4464 2.77038 0.669035
1279 1 1 3.22963 0.82318 4.0489 0.521705
611 1 1 2.02648 2.06302 3.97214 4.77455
1543 1 1 5.73419 1.23149 2.48762 2.3666
1208 1 1 6.35586 2.06828 3.00238 0.94538
886 1 1 7.67777 2.24879 6.07076 0.0947259
96 1 1 8.46937 2.06008 4.30491 1.67948
2103 1 1 8.49055 2.21782 5.31287 0.351597
553 1 1 13.2557 2.6447 2.92481 1.11639
640 1 1 12.6072 0.83332 3.78522 1.20073
409 1 1 13.5611 1.39212 3.96019 0.543835
387 1 1 14.5863 2.94411 4.85059 1.72062
1229 1 1 16.5545 1.84731 4.8811 1.80638
7246 1 1 14.7667 18.4541 3.00427 0.615597
7914 1 1 16.0921 4.64598 3.28689 2.77168
816 1 1 18.1501 5.83312 3.73933 1.23548
1338 1 1 18.3119 4.13766 3.77882 0.029216
1805 1 1 1.28941 2.64731 5.2393 0.037568
7284 1 1 2.46067 3.4319 3.29057 1.66213
509 1 1 3.09572 4.55908 2.93277 2.35084
1281 1 1 3.30011 4.90467 4.48443 2.94677
7123 1 1 3.80898 3.04756 4.09713 0.951202
56 1 1 8.3821 3.65858 3.9419 0.767908
585 1 1 8.22627 5.50125 3.83465 1.10293
528 1 1 7.84449 4.47681 4.19344 1.60688
2318 1 1 6.871 4.41844 3.76719 1.34378
7989 1 1 9.13635 1.15445 3.71442 0.385433
177 1 1 9.34816 2.43267 3.76647 1.1158
7685 1 1 8.48632 4.6236 3.08256 0.532383
1661 1 1 11.4857 4.06773 1.56858 1.73958
1826 1 1 12.3783 3.87423 3.58269 1.48421
7725 1 1 15.4277 5.15922 4.73704 0.85903
7155 1 1 12.9456 3.17774 1.50886 0.600494
1203 1 1 13.7174 4.15347 3.96807 1.5172
1239 1 1 15.3099 3.17213 2.57844 0.616254
7468 1 1 16.636 3.67649 2.85925 0.446674
148 1 1 17.4145 2.96269 3.42592 0.691503
1591 1 1 18.0828 2.66848 1.72913 1.16152
3932 1 1 17.3738 4.9772 6.43379 1.66608
6396 1 1 1.58848 5.31563 3.98505 1.4327
15 1 1 2.05917 4.09901 4.03456 3.02175
62 1 1 5.4486 2.45476 3.828 2.62169
7532 1 1 5.76858 6.36036 3.51283 3.28746
691 1 1 6.61674 5.97535 4.08335 1.43743
1648 1 1 8.92703 4.59997 4.34681 0.317628
122 1 1 10.5029 3.4354 3.02828 2.47555
2455 1 1 10.9276 4.56874 5.17104 0.917135
1698 1 1 13.247 6.09127 4.41821 2.08568
7422 1 1 12.9245 4.84254 5.20499 1.12198
6541 1 1 15.5731 6.0463 5.74861 0.58668
2075 1 1 13.0575 4.09897 5.83036 0.0420731
2392 1 1 15.7483 5.66069 3.78827 0.192601
581 1 1 15.163 3.68463 3.57398 1.782
486 1 1 15.0036 5.93989 1.95969 1.99936
102 1 1 15.1884 6.89675 2.13509 6.751
235 1 1 16.6653 4.70882 2.46547 0.327143
6533 1 1 1.70405 6.64068 5.36079 0.740868
7456 1 1 2.08371 7.67517 4.36128 1.70624
523 1 1 18.5563 4.84152 6.03518 0.68892
548 1 1 2.71745 5.66599 4.47075 0.819374
1883 1 1 4.84169 6.06595 3.54898 1.11824
6767 1 1 4.83224 7.72109 2.71035 0.409491
7921 1 1 5.27546 4.53499 1.90191 1.62091
1177 1 1 6.46827 6.97659 4.94063 0.648191
7904 1 1 5.13413 6.28634 2.63478 1.58442
455 1 1 10.2363 4.94687 4.4913 1.94609
980 1 1 11.3156 4.15383 3.69449 0.504881
1833 1 1 15.2425 6.28483 3.16514 0.678776
2017 1 1 14.1351 5.9106 3.65736 1.93657
591 1 1 15.9811 6.21033 2.26721 0.437876
1715 1 1 16.1529 7.36189 2.97962 0.394729
928 1 1 18.1445 6.93751 3.43281 6.23489
1637 1 1 17.5114 8.07028 4.30623 3.20647
1399 1 1 0.225666 8.23627 3.80787 0.563029
7795 1 1 0.312313 9.20561 2.80531 1.25875
134 1 1 4.85114 7.39135 4.36721 0.965227
1864 1 1 6.11658 7.11037 2.68375 1.97532
1334 1 1 8.60353 7.27257 4.70995 1.37595
7459 1 1 9.89787 9.75052 2.9795 1.04967
7322 1 1 8.42789 6.35625 4.25662 0.947445
1927 1 1 12.0625 5.47825 3.73314 1.94701
5690 1 1 13.8687 8.19395 3.71319 1.78496
277 1 1 12.1385 9.73435 1.59946 1.28535
648 1 1 12.4124 7.7592 3.7025 0.333576
985 1 1 11.9161 7.48328 1.88301 2.78491
610 1 1 12.8852 10.321 3.90427 1.92219
488 1 1 13.903 6.67403 4.8428 3.08238
5812 1 1 16.3002 6.70338 3.8836 1.4102
1537 1 1 15.2341 7.63881 3.65264 1.39777
960 1 1 17.3539 7.59525 6.04122 5.81384
913 1 1 16.5414 8.46935 2.67608 0.375649
114 1 1 2.52259 9.74828 4.17902 0.386838
2239 1 1 3.364 9.13866 4.32099 0.375264
959 1 1 2.88917 11.0325 3.43424 1.21269
996 1 1 3.08569 9.48655 2.12792 1.84115
1863 1 1 5.43357 9.07453 3.47211 0.716547
667 1 1 1.95512 7.8702 5.57556 2.85276
1415 1 1 6.31077 9.14165 2.89393 0.793295
344 1 1 6.87616 9.65525 3.7874 0.682313
1475 1 1 8.06826 11.183 3.02424 0.543349
1217 1 1 6.82466 8.17958 2.91938 0.289665
2874 1 1 7.19938 8.11916 4.2903 0.269414
1781 1 1 9.33512 9.39923 2.00255 0.559465
7573 1 1 10.5802 10.3626 3.67171 0.335361
183 1 1 10.9599 7.8982 3.26516 1.0134
7138 1 1 11.8316 12.236 3.27067 2.76604
1906 1 1 13.7767 8.2761 2.47387 2.54263
2320 1 1 14.5085 10.4092 1.79684 5.15631
738 1 1 11.8095 8.86925 3.60136 0.443483
240 1 1 15.3327 8.27606 4.57516 2.11086
1942 1 1 15.4145 10.1586 6.07794 2.74676
6561 1 1 18.0014 11.1275 4.3503 0.358719
1113 1 1 1.22806 8.81885 5.25846 0.531799
1870 1 1 17.5267 8.31864 5.31035 0.403693
336 1 1 18.2186 9.65383 2.71158 1.81775
1793 1 1 0.835529 9.91898 5.58662 1.35373
1272 1 1 2.13487 11.1469 5.26954 1.12853
1728 1 1 1.54266 12.307 4.61803 1.22601
369 1 1 4.45095 9.88371 2.21303 0.886514
243 1 1 3.38807 11.9858 5.54245 0.292135
2311 1 1 3.50311 8.75948 2.60416 3.70195
2980 1 1 5.97038 11.1045 5.48916 0.699116
970 1 1 4.04084 10.7143 4.98205 1.9176
1211 1 1 7.09445 10.898 3.31409 1.3576
7538 1 1 9.01662 11.4317 4.43744 1.29499
7798 1 1 7.2174 11.2034 5.21021 1.57374
378 1 1 9.54802 12.5515 4.36971 3.12315
221 1 1 9.96831 11.409 3.67466 0.988816
6896 1 1 8.91231 10.248 5.09427 0.976911
1487 1 1 11.93 10.0309 3.41038 6.96856
1100 1 1 10.6472 12.8673 4.79388 4.25907
1965 1 1 15.5509 11.3959 5.21177 1.20107
1072 1 1 14.1529 9.38008 2.98995 0.0615114
6913 1 1 16.2422 11.5621 4.24206 0.377549
186 1 1 14.5801 10.2443 5.45112 1.58483
1130 1 1 18.6453 10.7241 6.04236 0.208372
2798 1 1 18.7661 10.1694 3.88503 1.27689
2151 1 1 16.6415 11.0018 3.31884 1.11449
6719 1 1 18.295 9.11322 3.83117 12.3794
6563 1 1 18.0718 13.0759 4.07208 0.37733
2313 1 1 0.330516 13.4369 4.57216 2.38539
300 1 1 1.7643 10.9706 2.85733 0.761005
203 1 1 3.8193 10.7174 3.83075 0.866189
2357 1 1 3.32306 11.149 0.0890775 1.28315
7474 1 1 3.47767 10.59 2.52757 2.39731
163 1 1 6.13733 11.4594 3.07732 0.424541
765 1 1 4.72473 10.1878 3.19975 1.33037
1163 1 1 4.77259 12.3037 4.81087 1.50931
1912 1 1 7.84139 13.3542 5.22556 0.784196
201 1 1 10.9093 11.9506 4.03113 1.8765
627 1 1 14.6972 12.3783 3.71066 1.39897
7004 1 1 12.3648 12.5609 4.16471 0.523572
1438 1 1 11.6266 10.7908 4.15875 0.260767
1175 1 1 12.5339 14.3136 4.99725 0.184242
678 1 1 14.6063 11.7347 2.42982 1.682
1250 1 1 13.2811 10.5922 2.45076 2.19434
1590 1 1 17.8109 14.3653 3.84023 2.49966
622 1 1 18.6044 11.079 2.8722 0.0514041
1184 1 1 16.0405 13.393 2.98898 2.27274
1079 1 1 0.753108 10.8805 3.34381 2.55108
435 1 1 16.5468 12.6792 4.0366 1.38106
7670 1 1 16.903 11.9857 1.46775 0.345938
962 1 1 0.461481 12.7622 3.39057 0.236715
878 1 1 0.622376 14.5351 3.43395 0.494803
6531 1 1 1.67371 14.252 2.49834 0.103845
7847 1 1 1.98618 12.758 2.42162 1.23394
7212 1 1 1.22775 14.0578 4.84827 1.00099
1895 1 1 2.78208 12.9007 3.15969 0.626448
1561 1 1 5.06188 13.8851 2.1955 1.0901
7085 1 1 7.6063 12.3909 4.92929 2.58645
795 1 1 6.18568 14.4072 4.66128 0.686894
292 1 1 7.86554 11.9385 7.18236 1.16696
6536 1 1 6.87675 13.6334 3.61422 2.05021
381 1 1 9.85321 14.3154 2.36157 0.507785
342 1 1 9.24538 13.765 3.9791 0.836759
2224 1 1 11.7559 13.3829 3.21133 0.95032
1676 1 1 13.8011 13.7133 1.07786 2.00214
1986 1 1 17.854 15.1662 4.83406 1.77627
7993 1 1 16.1658 12.3707 37.5742 2.81019
1024 1 1 16.7986 13.8773 4.17631 0.754079
1514 1 1 16.9181 13.3243 1.72702 3.01308
7480 1 1 16.9693 14.5287 5.31111 1.00755
1116 1 1 2.63353 18.2595 2.77849 2.32297
7863 1 1 2.64821 14.6811 2.54271 1.07647
1146 1 1 0.984409 15.2069 1.25989 3.40026
1486 1 1 3.41684 15.2681 2.57395 1.6349
487 1 1 6.23862 14.166 3.00094 1.24729
1337 1 1 5.98996 16.1817 3.11541 0.952606
1128 1 1 7.19292 14.7987 4.41251 1.44328
961 1 1 8.90508 15.7152 1.08202 0.839872
7489 1 1 7.62418 15.5754 1.58742 0.221712
1505 1 1 9.22166 14.7828 4.57077 0.229829
1147 1 1 10.4255 13.6451 3.89201 0.652732