ITEM: TIMESTEP
1200
ITEM: NUMBER OF ATOMS
8000
ITEM: BOX BOUNDS pp pp pp
0.0000000000000000e+00 1.8820720577620570e+01
0.0000000000000000e+00 1.8820720577620570e+01
0.0000000000000000e+00 3.7641441155241139e+01
ITEM: ATOMS id mass type x y z v_temp
129 1 1 2.39519 0.388995 36.8137 1.65415
7265 1 1 2.77063 1.44005 0.0911923 4.08232
692 1 1 2.46006 0.432603 0.599781 0.930684
7267 1 1 4.46117 1.9206 0.12348 1.67694
7818 1 1 4.55933 0.0214555 1.2058 2.24596
7996 1 1 6.02269 17.635 37.4079 2.11968
7535 1 1 9.71201 2.46251 0.884229 2.29813
1196 1 1 9.83816 0.651619 1.01035 0.457278
1200 1 1 13.1512 18.1708 1.33189 0.436854
726 1 1 11.3055 1.52435 0.803686 3.42695
6814 1 1 16.8299 0.340176 1.52268 3.54734
881 1 1 13.8237 0.61709 0.717712 1.28791
1269 1 1 17.6454 0.968141 0.20593 0.712413
511 1 1 15.5136 2.18224 2.35389 0.672633
576 1 1 17.8698 2.44894 36.7368 2.50088
351 1 1 1.44118 1.10418 37.3233 2.58231
7647 1 1 18.1617 0.277283 37.2807 1.01127
6648 1 1 2.16432 4.00375 0.515942 1.47154
774 1 1 2.26989 3.11934 1.35973 0.468563
7226 1 1 3.63373 1.2751 0.901594 1.28899
547 1 1 4.40412 2.02396 1.11998 1.12296
6076 1 1 7.01043 2.041 1.87722 0.407709
7503 1 1 5.74188 2.61172 0.921776 3.40402
7982 1 1 8.76393 1.67648 3.24558 4.05855
6986 1 1 7.5285 0.542016 0.264101 0.865439
6855 1 1 9.64506 2.24339 37.3974 0.237882
7032 1 1 10.5463 2.07957 1.2104 0.161565
1806 1 1 12.5485 3.75832 0.983297 0.365151
593 1 1 10.6575 2.42764 0.204539 0.798814
1333 1 1 12.1108 1.62284 0.0429582 0.982778
7669 1 1 12.6287 0.300115 1.46331 1.8124
1315 1 1 15.6221 1.2558 0.624993 0.234145
914 1 1 14.5501 2.65998 2.25905 0.233463
7301 1 1 14.821 2.53995 0.412835 0.380281
1473 1 1 15.9961 2.90777 1.54685 0.706586
6868 1 1 16.6226 1.83331 37.4593 0.21075
18 1 1 18.6503 2.02955 37.3537 0.984289
7440 1 1 16.4981 1.46451 1.09752 1.19727
47 1 1 18.76 3.82773 2.31745 2.05312
447 1 1 1.02062 4.75763 36.7413 1.72029
508 1 1 2.33344 1.80511 1.16829 0.137458
6006 1 1 2.89366 3.46438 0.263313 2.1002
7660 1 1 3.77954 3.92789 0.882717 2.22479
7718 1 1 4.6893 3.12356 0.856968 1.02017
1309 1 1 6.21404 3.33269 1.54744 1.1064
7332 1 1 8.28173 3.84777 0.98502 1.21648
7653 1 1 7.00079 3.79973 0.547346 3.08966
6477 1 1 8.07567 2.7878 0.630911 1.23072
7666 1 1 9.91592 4.23288 0.656067 1.16237
73 1 1 12.0786 3.46192 37.4733 4.07403
1664 1 1 13.2821 3.7984 0.0502133 3.05882
7911 1 1 13.6765 2.4134 1.23045 4.09914
271 1 1 12.9319 4.91599 0.858801 2.39679
515 1 1 13.2849 1.89339 0.501366 1.12591
966 1 1 15.5402 3.45509 0.58587 0.945499
7841 1 1 18.5607 4.15937 1.03199 1.32034
366 1 1 1.10378 6.21919 0.80901 0.719072
7937 1 1 0.902607 4.5153 0.938991 1.15431
7507 1 1 1.89739 5.24647 1.10348 0.261172
3 1 1 3.88775 5.33479 1.55976 1.84526
7879 1 1 4.66778 4.83783 0.883373 0.299808
429 1 1 5.54065 6.67312 0.277077 2.18769
1850 1 1 5.94221 4.62742 1.00562 0.885554
529 1 1 7.76189 4.73775 1.243 2.52405
7644 1 1 9.34707 5.57169 1.45078 2.15045
6942 1 1 6.05956 5.51583 1.42238 2.31516
7625 1 1 10.6959 6.27698 1.83995 2.56205
6703 1 1 12.0288 5.38395 1.29794 3.34998
7466 1 1 11.3473 4.2533 37.0662 1.86801
1329 1 1 13.5137 4.78187 37.4526 3.50499
6872 1 1 14.581 3.1322 1.2063 1.0861
7432 1 1 17.1912 5.33347 1.71429 1.72692
7086 1 1 0.0158523 4.26859 37.4514 4.37342
7641 1 1 0.419867 7.17583 1.49388 0.451297
6848 1 1 2.80181 6.42549 0.80079 2.45266
354 1 1 2.34186 7.61013 0.940802 0.221608
1045 1 1 2.93734 5.39699 1.12528 0.643798
945 1 1 6.74246 7.08635 0.290202 0.638167
7663 1 1 7.23229 6.66328 1.36734 0.262553
193 1 1 8.72081 6.89586 1.51673 1.63912
796 1 1 8.05719 6.94401 2.55832 1.55636
543 1 1 9.20484 7.11639 2.4786 0.581788
6657 1 1 10.1906 6.31531 36.41 1.31544
7348 1 1 12.6995 6.48832 0.972304 0.4655
91 1 1 13.6977 6.53398 1.76951 0.427431
276 1 1 14.9853 7.2036 36.8349 2.1836
7972 1 1 14.7514 5.89331 1.98326 2.06755
79 1 1 17.966 8.33053 1.37488 4.34101
7479 1 1 17.4223 6.19915 0.484653 2.67107
72 1 1 18.7782 6.37139 0.91977 0.913641
6762 1 1 1.14252 8.42326 0.65336 1.03212
6705 1 1 1.31323 7.11094 0.178341 1.34852
158 1 1 3.45405 8.30376 0.165932 4.62678
7424 1 1 2.25583 7.85674 37.5205 3.59465
7047 1 1 3.83835 7.04725 1.05689 1.07664
997 1 1 5.67978 8.38894 0.654922 3.87749
925 1 1 5.25368 7.41689 37.1009 0.327143
7803 1 1 4.54669 7.5474 0.40726 0.514304
6235 1 1 6.98605 8.37809 37.4934 0.728514
6874 1 1 7.40683 9.29179 0.947844 0.926788
7096 1 1 7.20332 7.86911 0.978742 2.65148
1820 1 1 7.62646 7.37517 37.5761 0.103934
214 1 1 9.46854 9.35488 0.156903 0.346185
6619 1 1 11.0387 7.61737 0.239666 1.2177
181 1 1 11.5583 7.59363 1.37238 0.224149
86 1 1 13.3364 8.61736 36.5863 0.991264
762 1 1 16.3142 7.27252 0.454583 0.418523
617 1 1 13.9645 6.85745 0.277886 1.20519
108 1 1 16.9939 8.18538 1.08136 3.43339
884 1 1 18.7936 8.30048 36.7223 0.122623
736 1 1 0.578712 9.25213 0.67527 1.94544
146 1 1 0.824135 10.0811 35.9664 5.95093
5397 1 1 0.463893 9.7872 37.0139 2.65505
442 1 1 1.74786 9.06435 1.19082 1.40875
7721 1 1 0.919658 10.3506 0.810159 5.18856
6126 1 1 4.88635 10.1717 1.83936 0.137597
538 1 1 3.86222 8.87297 2.22991 1.47627
178 1 1 4.29495 8.70539 0.643904 3.43258
5813 1 1 5.37043 9.35609 0.152852 3.13901
7326 1 1 5.96501 9.34419 1.20626 0.708266
1046 1 1 7.292 9.92275 1.83351 1.41128
721 1 1 9.48887 9.87959 1.10062 2.49156
1224 1 1 8.43569 9.08573 1.50867 0.744679
570 1 1 10.3437 8.62428 0.489818 3.08944
6470 1 1 10.4461 9.96644 37.4896 0.0449108
6933 1 1 12.1667 9.08097 0.921476 1.21884
6527 1 1 11.7164 10.6647 37.5647 1.90276
6693 1 1 14.0108 10.3579 1.00922 0.173364
349 1 1 13.4421 9.49156 37.1786 0.448122
1349 1 1 14.9553 9.60319 1.28891 0.315123
253 1 1 13.5218 7.81203 0.313065 2.18994
1074 1 1 15.8921 9.37898 37.4772 0.6384
877 1 1 17.3117 9.33124 37.6051 1.2611
712 1 1 16.9862 10.6562 1.88391 1.81529
7913 1 1 16.8342 9.23967 2.22627 0.853413
1036 1 1 18.0787 9.05819 0.74687 2.03769
889 1 1 18.6645 10.9187 0.962976 1.65821
1093 1 1 2.92316 10.8209 0.75467 1.40321
1280 1 1 3.45213 8.88943 1.32867 1.43918
7011 1 1 4.56477 11.4892 1.607 0.538687
7144 1 1 4.52789 10.3393 36.8147 0.101653
1172 1 1 6.32511 10.4446 0.377421 0.256589
7621 1 1 5.78232 10.3033 1.36592 1.01645
6842 1 1 7.29883 10.5608 0.874893 1.35844
7065 1 1 8.1443 9.87552 1.03475 1.40216
10 1 1 6.7617 10.8882 1.66033 0.231228
7740 1 1 9.22246 10.9815 0.898698 0.42855
6750 1 1 11.4787 12.0033 1.08202 1.47854
574 1 1 12.8543 10.4189 0.760288 0.745095
7635 1 1 13.2734 11.0175 37.5614 0.675009
423 1 1 14.9665 10.6111 2.43445 3.51674
501 1 1 14.7494 11.8734 37.4228 2.76759
683 1 1 14.5452 9.77385 0.00618762 4.39024
669 1 1 16.7612 9.07232 0.837231 2.59323
247 1 1 17.7144 10.1222 0.741525 0.811336
5857 1 1 17.5807 11.1659 0.940287 1.83133
1528 1 1 0.351208 12.3183 0.240238 0.760492
1350 1 1 1.27507 12.1008 0.1185 0.425013
7060 1 1 1.55954 11.086 1.43173 4.14395
7174 1 1 4.48835 12.2131 0.824082 0.56693
1681 1 1 6.14984 12.7934 1.74114 0.93231
584 1 1 6.44944 11.7894 0.962662 0.177209
365 1 1 8.27665 10.8551 1.2989 4.36591
955 1 1 8.46934 12.2589 0.202336 0.968012
38 1 1 10.1963 11.1446 1.62555 0.887517
255 1 1 9.52768 12.6977 2.60683 0.757356
6752 1 1 9.31039 12.9388 0.360184 2.8133
6567 1 1 10.3056 12.2431 37.5292 0.342489
286 1 1 10.4029 12.5408 1.14942 0.400917
7545 1 1 12.6346 13.483 1.36004 0.8811
7634 1 1 13.8335 11.7301 0.527094 0.988043
237 1 1 14.6843 11.8868 0.948422 1.6917
7483 1 1 16.1227 10.9242 0.0222801 3.39517
6599 1 1 16.3354 10.1171 0.763208 0.235477
7089 1 1 15.8484 12.0618 1.48463 2.35328
579 1 1 17.481 13.5538 0.86164 1.01178
1234 1 1 18.2895 12.7107 0.830771 1.34432
7555 1 1 1.06545 12.7902 1.17174 2.66405
6788 1 1 3.33082 13.0539 37.4228 1.06021
8000 1 1 4.00017 13.398 0.682924 0.250946
6232 1 1 3.03007 15.1282 1.03874 1.92274
1995 1 1 5.88523 13.7599 1.73936 0.613375
215 1 1 5.34762 14.8118 1.25349 1.17471
815 1 1 5.03673 13.1696 1.33633 0.528759
1908 1 1 8.31861 13.2784 0.485012 0.235102
5866 1 1 8.94995 13.2325 1.55143 0.811067
53 1 1 9.88325 13.6709 0.706547 2.46367
6686 1 1 10.5349 14.3529 1.07752 0.953085
7888 1 1 15.9818 13.0551 0.947453 0.0393842
7390 1 1 14.754 13.4153 0.66157 0.343761
234 1 1 16.4496 14.2055 0.606974 0.261238
375 1 1 17.3226 14.3596 1.80801 0.849045
7826 1 1 18.2848 14.5182 0.639494 0.535454
634 1 1 16.5261 12.225 0.545667 1.86634
7947 1 1 18.4191 13.6729 37.4933 1.88406
7968 1 1 0.706594 14.2364 37.5143 1.32351
1529 1 1 1.39323 13.9383 1.70892 1.16251
559 1 1 1.40907 16.0136 1.55377 1.73357
704 1 1 5.85385 13.7714 0.50799 1.28355
7854 1 1 4.50499 14.9827 0.556311 0.60928
769 1 1 4.71018 13.9974 1.79156 0.428071
6379 1 1 7.01434 13.583 1.41422 3.00591
7926 1 1 4.83702 15.8393 1.19294 4.24878
504 1 1 6.62249 15.0145 0.554792 0.63922
6600 1 1 5.95818 15.876 0.896576 2.89251
1150 1 1 9.00633 14.5595 37.4111 1.39744
7457 1 1 9.0439 15.1098 0.835776 0.0321778
377 1 1 11.3151 14.9232 1.63702 0.89911
746 1 1 16.1109 15.4364 37.3747 0.916508
1042 1 1 17.0516 15.0826 0.736986 0.454555
629 1 1 16.0581 15.2342 1.48782 0.61021
558 1 1 0.365637 14.7548 1.04676 6.22956
7869 1 1 16.4235 14.4494 36.4725 1.74452
7951 1 1 18.6414 17.1028 0.723002 1.00701
7604 1 1 3.32775 0.0526424 37.5091 1.73976
1485 1 1 1.71782 17.8088 37.0681 5.87585
1481 1 1 4.72147 16.6104 0.527111 1.02382
775 1 1 5.12724 16.9084 37.129 0.75632
7569 1 1 8.17597 16.374 37.0154 3.72675
7206 1 1 7.50757 16.8907 0.162202 0.0343429
6914 1 1 6.81674 17.333 2.1202 4.25639
227 1 1 10.7835 16.7205 1.43317 1.63176
708 1 1 10.258 16.6008 37.3877 3.48018
7550 1 1 10.7315 18.315 0.596416 0.784083
7341 1 1 12.1011 16.973 37.2456 6.4011
1110 1 1 12.6731 16.0715 0.152995 0.87185
22 1 1 14.6544 16.9115 0.777672 1.24303
356 1 1 12.7598 18.1325 0.22581 0.138254
7202 1 1 15.3044 15.6952 0.964795 1.36475
7999 1 1 17.387 16.1539 1.54453 0.959236
6845 1 1 0.0458483 17.7923 37.1593 0.579938
6777 1 1 2.879 18.1008 1.07925 0.707883
194 1 1 1.70865 18.6651 0.23663 0.0586066
6713 1 1 3.42797 16.5002 0.92523 2.25689
6835 1 1 5.09577 18.5365 0.102491 2.25513
1573 1 1 5.01449 17.8014 1.14503 2.46713
228 1 1 6.96776 17.442 1.02888 7.45811
3576 1 1 7.27224 18.1991 37.4826 1.60285
1206 1 1 9.28793 17.2033 0.268881 0.894468
1139 1 1 9.4601 18.5495 0.379743 0.367024
2020 1 1 11.4447 18.1755 37.495 0.739005
1339 1 1 11.0225 0.592698 1.11505 0.468378
338 1 1 11.913 18.5788 0.997243 1.62422
6636 1 1 14.9375 18.0816 0.17894 0.558745
7478 1 1 17.223 17.2167 0.984458 0.633487
7261 1 1 18.2272 1.00572 1.04333 0.460875
2367 1 1 0.927876 17.8695 0.292601 3.56422
33 1 1 17.3127 17.3233 36.8914 0.596541
1999 1 1 18.2165 1.66867 1.80027 0.842452
1198 1 1 1.14339 18.7047 1.7294 0.582332
643 1 1 2.40071 0.187763 1.74256 1.24585
2347 1 1 3.01473 0.126569 2.88509 4.72711
6152 1 1 3.53296 0.818311 1.81081 0.941933
175 1 1 5.86268 0.779823 1.76674 0.937354
895 1 1 5.14531 1.08894 2.46668 0.73428
633 1 1 6.67468 0.702363 3.35061 0.271557
1446 1 1 6.83719 18.5574 0.817091 1.77905
1416 1 1 7.82546 18.3701 0.738618 4.14394
94 1 1 8.48634 0.823819 1.51376 3.34269
1749 1 1 10.8645 18.5717 2.37331 0.599754
824 1 1 9.24778 1.77161 1.94765 0.281209
6079 1 1 10.7805 0.851811 2.0295 2.53787
7745 1 1 11.7195 0.349784 1.98731 0.998717
383 1 1 14.7619 0.458437 1.85133 2.42252
677 1 1 14.7325 1.7611 1.77174 0.205925
608 1 1 18.6246 0.0793119 3.59194 1.30854
31 1 1 0.219293 2.8881 1.09142 4.45386
1348 1 1 0.957819 1.20543 0.740793 1.19928
427 1 1 1.11166 3.30456 2.97848 1.51423
155 1 1 2.5911 1.34703 2.35713 3.83005
7903 1 1 1.48138 2.66198 2.36251 1.29624
109 1 1 2.42433 2.14286 3.13762 0.940553
406 1 1 3.38003 3.18493 1.77955 2.09738
936 1 1 4.26479 4.04943 2.02765 1.63867
2126 1 1 7.89231 1.39917 2.20001 4.00389
7539 1 1 10.4184 1.27985 2.83716 1.00198
1993 1 1 11.055 2.19614 2.42761 0.449337
418 1 1 11.7204 1.31699 2.31854 1.10971
1213 1 1 12.7475 0.841615 2.34478 1.19984
100 1 1 11.9203 3.00599 1.57207 2.65355
1308 1 1 13.9159 1.23528 1.75178 0.828285
1007 1 1 15.6941 0.936987 1.61325 2.01445
1344 1 1 17.1558 1.74078 2.08932 0.821032
206 1 1 17.0861 2.88094 2.35564 0.200961
7088 1 1 17.3293 2.54218 1.35784 0.684672
7980 1 1 0.597927 1.89529 3.06443 2.65812
7646 1 1 0.948913 4.15879 2.10952 0.597075
6995 1 1 1.88333 4.82581 2.28265 0.712437
875 1 1 1.35109 3.58727 1.41951 0.653731
1409 1 1 3.01059 5.42987 2.1969 0.769027
879 1 1 2.94684 4.10153 2.33358 1.77297
1237 1 1 4.46397 2.26228 3.68205 2.77346
7251 1 1 2.44164 3.1602 3.0801 1.01971
580 1 1 5.0567 4.06642 1.30072 2.11581
125 1 1 4.45344 3.24013 2.79819 0.858859
623 1 1 8.15075 4.3101 2.29493 1.43004
656 1 1 6.16378 2.88205 2.5302 1.13047
385 1 1 7.38897 3.01669 2.76268 0.649147
6659 1 1 8.88817 2.77298 2.80856 0.26903
934 1 1 9.86782 2.68003 2.62131 0.282451
3337 1 1 10.6525 3.46092 2.92972 3.38363
7588 1 1 10.8416 3.58786 1.83665 0.592544
505 1 1 13.7211 2.11969 2.52493 3.99922
7719 1 1 13.7477 4.36759 2.68497 2.27605
1377 1 1 14.2197 3.82334 2.02385 1.39601
1422 1 1 15.4637 3.46038 4.27692 1.86849
1183 1 1 15.38 3.39509 2.23497 1.93611
651 1 1 16.7418 4.09912 2.12317 0.508937
7998 1 1 16.7822 5.49923 2.86123 3.036
314 1 1 0.0182413 4.85509 1.90629 0.380071
802 1 1 0.72866 5.5885 1.58367 0.520398
1287 1 1 0.673684 5.03523 2.58249 1.59978
190 1 1 2.9449 6.46496 1.90617 0.80981
2824 1 1 4.60227 4.76939 2.60975 0.371638
1714 1 1 3.34891 5.73985 3.08724 0.422937
7631 1 1 5.17018 5.65727 1.92989 2.40796
1717 1 1 5.33304 5.63562 3.12561 1.23483
1977 1 1 4.32286 5.65995 3.35799 0.973214
661 1 1 5.98219 4.88011 2.37183 2.34713
6922 1 1 8.09057 5.54468 2.08662 0.590477
1076 1 1 8.86024 4.5236 1.61547 2.3003
6136 1 1 8.25272 5.81489 3.41915 0.734521
492 1 1 11.8057 6.63511 1.96297 0.286567
1051 1 1 10.7973 5.78897 2.74115 1.44394
582 1 1 10.9356 6.27935 0.90715 2.66683
2221 1 1 12.8117 4.87463 2.84783 1.96306
7185 1 1 14.7417 4.90264 1.86341 0.201657
6241 1 1 15.5904 4.15921 1.4327 0.381559
444 1 1 0.107149 5.08498 0.551112 2.59589
6975 1 1 1.45797 7.94685 1.44626 2.06699
1562 1 1 0.759047 6.38412 2.19923 0.285994
230 1 1 0.912558 7.29218 2.79793 2.56297
7659 1 1 2.24274 5.89142 2.70568 1.44686
7738 1 1 4.24124 6.5394 1.97439 2.48215
7651 1 1 2.87085 7.01395 2.93859 1.65348
7215 1 1 4.5545 7.64489 1.47276 1.46193
1405 1 1 7.52054 5.06606 4.26505 0.811856
2348 1 1 8.87838 5.12079 2.56442 3.64576
1194 1 1 8.92461 8.21216 2.34227 4.3177
140 1 1 12.9458 5.61055 2.00965 2.48617
469 1 1 14.5695 5.09928 3.10802 2.07187
1193 1 1 13.8767 5.54389 1.40731 2.19117
1274 1 1 15.86 7.26293 4.04118 0.152419
2197 1 1 16.1698 5.58505 1.402 2.66035
223 1 1 14.7083 5.72689 0.935328 0.402464
7358 1 1 17.4007 6.28085 2.16911 0.413539
6675 1 1 0.149325 5.95468 3.16223 0.496713
1596 1 1 18.5219 7.24746 2.28071 1.14871
1917 1 1 2.15844 7.63689 3.22516 1.48402
926 1 1 0.911294 8.60674 2.01861 4.01137
7791 1 1 2.98584 8.49373 3.01369 0.999776
7966 1 1 1.97909 8.88895 2.52001 0.889088
5817 1 1 4.58865 5.81534 0.485204 0.703515
1002 1 1 2.28555 7.74664 2.05023 1.58228
626 1 1 4.93811 8.00797 2.39068 3.68854
615 1 1 5.79441 8.43588 3.13794 1.09966
7643 1 1 7.08196 6.44564 2.52194 0.946001
1427 1 1 6.22944 7.69632 1.49566 0.612635
568 1 1 7.91018 7.87763 2.03843 0.420672
7748 1 1 10.2905 7.33058 1.81029 0.261573
6538 1 1 10.7822 7.63297 3.172 1.33814
188 1 1 10.9309 8.62202 1.93314 1.96235
1069 1 1 12.6386 9.50164 1.9423 2.526
285 1 1 13.9225 7.7346 2.85139 0.732078
7021 1 1 13.2486 9.16775 1.15755 1.49857
7983 1 1 15.5357 7.66358 1.67735 0.729753
550 1 1 15.1597 8.46259 0.587109 1.89058
7717 1 1 17.4784 7.14963 1.57008 0.180865
1318 1 1 0.0730263 8.8751 1.60182 0.97138
6875 1 1 17.717 8.68163 2.39913 1.33645
7280 1 1 18.4668 5.95102 1.99382 2.56579
107 1 1 17.9676 6.72966 2.9991 2.4028
2110 1 1 0.460414 9.4966 3.59504 0.852025
481 1 1 2.87273 9.40584 2.48728 3.15457
750 1 1 2.19565 9.9793 1.19279 0.249019
7482 1 1 4.32939 8.72698 3.24194 0.725103
1301 1 1 5.35811 9.35014 2.43609 0.113498
6987 1 1 6.36038 9.74141 2.07298 2.40127
1547 1 1 6.5972 8.58506 0.95802 3.50615
7335 1 1 8.20065 8.72933 2.81367 0.796277
1001 1 1 7.01881 8.74071 2.019 0.587293
2177 1 1 9.65608 7.88286 1.15095 3.20081
7002 1 1 8.68595 9.94248 1.82762 0.760749
7943 1 1 9.55662 10.3579 2.27388 2.64067
2244 1 1 10.6183 9.77615 2.35513 0.635964
6497 1 1 11.3727 9.93406 3.21419 1.70482
6463 1 1 11.8733 9.99084 1.42463 1.06966
6669 1 1 14.8372 8.85817 2.25691 0.670641
973 1 1 14.2834 9.97875 2.03124 3.12614
7851 1 1 17.4484 8.68308 3.6838 1.60075
790 1 1 15.9318 9.59979 3.25538 2.67099
6569 1 1 18.4283 9.82832 1.57017 1.50916
967 1 1 3.20119 10.4101 1.67635 1.8858
863 1 1 0.49355 9.48256 2.30295 3.73134
1790 1 1 6.80968 11.8655 1.93694 1.17998
1417 1 1 5.80488 10.5222 2.48325 1.4191
1542 1 1 7.94509 9.94677 2.68962 1.20125
232 1 1 11.9281 10.9972 0.924531 0.16811
1107 1 1 10.8736 9.3706 1.11016 1.69519
7984 1 1 10.6384 11.4375 2.86662 0.247569
7156 1 1 12.0032 11.303 2.5898 1.71696
653 1 1 12.3801 12.1294 1.50823 2.54448
296 1 1 14.3208 8.25434 1.52907 0.39091
6590 1 1 13.7711 12.361 1.45828 0.803132
6939 1 1 12.9163 11.3662 1.23712 1.48656
84 1 1 15.9928 10.5452 4.57335 0.10248
386 1 1 13.3219 10.7527 2.4728 0.441479
7470 1 1 16.8422 10.5492 3.56188 0.560615
818 1 1 15.2261 10.4599 3.66956 1.70238
7800 1 1 17.8164 10.3284 2.3833 2.98031
7845 1 1 0.923411 11.5267 3.03547 2.40515
1360 1 1 0.761931 10.3468 1.80807 1.5652
259 1 1 0.656008 11.7168 1.18724 4.20681
7811 1 1 0.500912 13.043 2.11217 0.876539
340 1 1 2.21481 12.1539 1.26744 1.65561
6646 1 1 3.21862 12.6532 1.40057 0.857603
7805 1 1 2.63112 11.3435 2.05548 0.457047
773 1 1 3.07103 12.2643 2.42794 0.505524
834 1 1 3.78382 12.7537 2.98125 0.271184
7248 1 1 4.38884 12.6964 2.09992 2.28633
290 1 1 6.49571 11.7333 2.93533 6.49634
7704 1 1 8.66075 10.7825 2.39288 1.34164
1165 1 1 7.47779 11.9375 2.96265 0.559426
6946 1 1 9.35666 11.2367 2.83794 1.24107
4198 1 1 11.7344 12.8076 1.9921 1.16641
2814 1 1 12.875 12.9971 2.49385 0.849883
7444 1 1 14.4643 12.7361 2.3074 1.78013
7867 1 1 15.8255 11.2752 2.1367 3.68299
1971 1 1 18.1436 12.4297 1.80092 3.24008
7855 1 1 0.231305 13.5257 0.906079 0.643835
7772 1 1 1.25716 12.0788 1.86088 2.14946
245 1 1 2.1341 12.3866 3.18242 1.92914
6650 1 1 2.15544 13.0501 2.11077 0.743658
7056 1 1 3.80262 13.6752 1.80846 1.69066
7610 1 1 6.21693 13.3344 3.53846 1.20581
452 1 1 6.43141 12.9403 0.723124 0.377967
1144 1 1 7.72897 12.2864 1.52366 0.924594
1448 1 1 8.07026 13.0066 2.35176 1.78757
1210 1 1 7.43725 14.0655 0.601245 1.75838
1178 1 1 9.06376 13.5032 3.2034 1.08791
6632 1 1 8.4901 14.1396 2.71694 1.72117
1848 1 1 10.1888 14.916 3.25143 1.01052
1103 1 1 11.2589 14.0247 2.40595 0.244492
6824 1 1 12.8733 14.1932 2.17454 1.90634
1187 1 1 13.5527 13.5765 3.02128 0.95155
1143 1 1 15.5516 12.9238 2.64159 0.509224
7853 1 1 14.6457 14.5982 1.66173 0.486301
393 1 1 15.9165 13.8314 1.82802 0.775321
7887 1 1 0.287988 13.9072 2.90783 2.08128
1604 1 1 17.9932 13.6402 2.95033 2.44688
757 1 1 0.829183 17.1347 1.21308 2.68717
1509 1 1 1.4438 16.7276 2.26058 0.960567
7957 1 1 2.16089 14.555 2.05395 1.65004
6243 1 1 2.56679 13.6986 1.00503 1.2218
445 1 1 3.46762 14.0592 3.10091 4.05853
399 1 1 4.82916 13.7886 3.15922 3.01298
1527 1 1 5.32585 14.3566 2.55088 0.980911
6851 1 1 8.96305 16.0591 1.12704 0.578947
902 1 1 7.63163 14.3464 2.2949 1.61059
829 1 1 9.40087 14.7663 2.57404 1.0333
7040 1 1 10.0699 15.7459 0.89385 2.40657
2661 1 1 11.0229 13.9597 3.44754 0.918127
3108 1 1 11.1132 14.9855 2.72613 1.96161
6723 1 1 13.1297 15.7464 1.09951 0.249082
389 1 1 14.2838 15.4897 2.76569 0.275961
2345 1 1 13.7105 13.3636 1.52735 2.23698
7548 1 1 15.0743 12.9901 1.53176 3.55529
2287 1 1 14.4506 15.5693 1.46048 2.21413
1439 1 1 14.6098 16.7132 2.50404 2.08814
1638 1 1 0.228711 15.1987 1.9991 1.02222
785 1 1 2.08101 17.6388 3.46431 5.19132
328 1 1 0.164475 17.079 2.09035 0.732267
844 1 1 3.06796 15.9888 1.74439 0.384065
332 1 1 3.52196 16.7395 2.50419 0.597264
6459 1 1 4.12822 15.2995 1.86991 0.358135
7613 1 1 5.96822 17.065 0.934901 1.00213
728 1 1 5.88058 15.372 2.07096 2.61979
7856 1 1 8.30644 17.3456 2.19875 0.303671
1432 1 1 6.89273 15.5025 1.67512 1.30765
1582 1 1 9.24211 17.421 1.27629 1.87899
854 1 1 10.1784 15.0266 2.02706 0.540853
416 1 1 10.8245 16.5005 2.85823 0.881325
343 1 1 11.25 17.9175 1.64097 3.50869
7149 1 1 11.8156 17.1744 2.92005 0.242228
1904 1 1 12.0169 16.1022 3.26269 0.313137
1406 1 1 14.9523 15.8215 4.16592 2.08886
40 1 1 15.3935 16.6413 1.53118 0.421376
2409 1 1 17.9004 15.4968 2.15944 2.18242
5999 1 1 18.4293 16.3162 1.70217 0.902316
1634 1 1 1.1038 18.2667 3.19826 0.736338
318 1 1 2.05019 17.357 1.68056 1.5866
686 1 1 1.90014 16.7697 0.660176 1.80277
1729 1 1 3.22915 18.1979 2.04355 0.517201
6866 1 1 4.61055 16.9151 1.63131 2.68688
1328 1 1 5.38331 17.6874 2.10121 0.105081
7785 1 1 6.22857 18.3596 1.79384 0.519053
605 1 1 7.97572 16.6928 1.19683 1.13981
1785 1 1 9.51334 18.4896 2.60795 0.715026
7230 1 1 10.5732 17.1969 3.67605 2.82792
6673 1 1 11.519 18.2467 3.16412 0.387647
696 1 1 12.3031 18.2226 2.25221 0.1057
841 1 1 10.8534 17.4987 2.66469 1.54811
2270 1 1 14.292 17.4508 1.76704 0.63871
273 1 1 14.0112 18.2422 0.652678 0.439371
859 1 1 16.7877 17.3708 2.34322 1.14018
180 1 1 15.5531 17.1914 2.50434 0.873693
1186 1 1 15.4131 18.0416 1.48387 1.26843
7930 1 1 18.8049 17.7874 1.4333 1.11043
7188 1 1 0.048106 0.56446 2.48351 2.61277
1926 1 1 18.2672 16.7601 2.76891 3.58871
7938 1 1 1.37986 0.789314 2.25388 1.94223
7934 1 1 2.7853 1.0227 3.4987 0.523909
489 1 1 1.89716 0.350114 3.44502 0.340132
3146 1 1 2.8026 18.6751 3.97176 0.318041
1930 1 1 4.17097 1.27326 2.88751 0.456823
1140 1 1 4.78183 18.7101 2.59961 0.370489
7122 1 1 4.85989 18.6002 5.14184 1.36473
1331 1 1 3.74305 0.843759 4.19603 0.238188
6321 1 1 5.97356 1.00143 4.54114 1.44347
1168 1 1 8.13744 0.53879 3.14097 0.299003
497 1 1 8.11256 1.00672 4.21407 0.496598
566 1 1 8.84765 0.547118 2.3968 1.61867
1658 1 1 9.67535 0.230893 3.80481 0.455882
700 1 1 11.3303 1.13427 3.488 1.32629
1708 1 1 10.131 1.07303 4.19656 3.20935
906 1 1 12.112 0.396771 3.0183 2.59328
2106 1 1 13.0979 18.5548 3.23223 0.69867
871 1 1 12.7723 0.469226 3.93538 3.76066
990 1 1 15.2683 -0.00584843 2.85792 1.41603
787 1 1 17.5253 18.5973 3.75271 1.72526
982 1 1 15.6261 1.53477 3.39004 1.57091
7950 1 1 14.33 0.214294 3.57932 3.93999
1223 1 1 17.5897 1.59632 3.59096 0.904931
894 1 1 16.9233 0.315028 4.74091 4.08762
1265 1 1 0.0139977 1.33026 3.88724 5.54477
915 1 1 1.76905 1.40778 3.65318 0.628992
1279 1 1 3.1591 1.86431 3.99144 1.93151
611 1 1 1.62085 2.80417 3.80459 3.65698
1543 1 1 5.88593 1.99739 2.23687 1.94303
1208 1 1 6.74413 2.08697 3.03354 1.16974
886 1 1 7.78901 1.99406 4.4426 1.77078
96 1 1 8.99494 3.00971 4.92855 0.655017
2103 1 1 8.92224 1.7022 4.46019 1.53107
553 1 1 11.3852 2.86366 3.31911 0.142438
640 1 1 13.0998 1.18133 3.26279 2.32413
409 1 1 13.6141 0.567954 4.476 0.346211
387 1 1 14.6795 2.84797 3.44046 1.41142
1229 1 1 15.8282 2.82897 4.94851 4.05163
7246 1 1 16.4817 1.01588 2.53121 1.41096
7914 1 1 16.6966 2.92439 3.79123 0.392197
816 1 1 0.453313 4.22346 3.22778 0.246838
1338 1 1 0.168788 3.77135 4.21055 1.37242
1805 1 1 1.58707 3.9974 4.29814 1.10019
7284 1 1 3.3198 3.88874 3.83534 0.398169
509 1 1 3.34827 2.71788 3.27442 0.644171
1281 1 1 3.6742 4.51827 4.68904 0.492127
7123 1 1 4.20917 3.31581 3.79452 0.550161
56 1 1 7.60302 3.01798 3.78445 0.95546
585 1 1 7.82981 4.95091 3.30185 0.93959
528 1 1 7.97425 4.16508 4.19596 4.12039
2318 1 1 7.18601 3.96661 3.51503 0.499925
7989 1 1 9.83397 1.9689 3.99094 0.570917
177 1 1 9.5085 3.81493 2.21536 0.939956
7685 1 1 9.18675 4.01938 3.89398 0.361369
1661 1 1 11.7609 3.74277 2.56407 3.62319
1826 1 1 10.6714 3.44795 4.27838 1.37321
7725 1 1 13.6998 4.91896 3.69661 0.778459
7155 1 1 13.4526 2.96368 3.20512 0.859571
1203 1 1 13.5389 2.81006 4.61816 1.30723
1239 1 1 16.185 3.38434 2.99876 3.29369
7468 1 1 17.1267 4.12867 3.19541 3.60876
148 1 1 18.2745 2.41709 3.49657 1.29598
1591 1 1 18.4896 2.77191 2.03777 0.491178
3932 1 1 0.809698 5.084 4.38085 2.97485
6396 1 1 1.79091 4.43029 3.39403 1.62258
15 1 1 3.41249 5.1237 3.93434 0.0580588
62 1 1 5.81339 4.2088 3.18916 0.624277
7532 1 1 7.03056 5.2701 2.32782 0.587736
691 1 1 6.43451 4.86155 3.45554 0.914425
1648 1 1 8.8172 5.1104 3.97034 1.28343
122 1 1 10.3608 5.4116 3.66928 1.13253
2455 1 1 10.5327 4.76989 4.78246 1.20108
1698 1 1 11.9945 5.99791 3.51186 0.264084
7422 1 1 12.6692 5.43401 4.06434 0.764117
6541 1 1 15.0206 4.71021 4.70525 1.27945
2075 1 1 13.0314 3.80023 5.02981 0.663972
2392 1 1 14.8933 6.93248 3.66791 1.89585
581 1 1 15.9015 4.33024 3.85645 1.76909
486 1 1 16.0273 4.91405 2.35031 3.13668
102 1 1 15.6636 5.98266 2.91435 1.12995
235 1 1 18.0325 5.52464 2.85874 1.82252
6533 1 1 0.45455 6.35399 4.48756 1.63727
7456 1 1 1.64176 6.66836 3.32356 0.98972
523 1 1 1.51126 5.96028 4.19156 2.32153
548 1 1 2.54856 5.8489 3.79249 1.32553
1883 1 1 4.22958 5.98737 4.35255 0.516988
6767 1 1 3.77739 7.71421 3.13687 0.975442
7921 1 1 5.99705 6.39516 2.19409 4.54135
1177 1 1 7.75675 6.67469 3.82066 0.66588
7904 1 1 6.60129 5.84277 3.25953 0.161257
455 1 1 9.14609 6.18272 4.144 3.04292
980 1 1 11.2216 5.62472 4.51402 0.516352
1833 1 1 13.9161 5.989 4.20527 1.04667
2017 1 1 13.1919 5.97732 3.10457 0.876777
591 1 1 16.1582 6.8866 1.33407 0.486524
1715 1 1 16.8293 6.5238 3.23518 1.85255
928 1 1 17.3428 6.53269 4.6916 4.10294
1637 1 1 0.193098 6.87989 3.42051 0.778838
1399 1 1 18.3032 7.60869 4.07995 2.11305
7795 1 1 1.10837 8.42754 3.23053 0.906116
134 1 1 3.56456 8.03624 4.47702 0.482741
1864 1 1 6.7717 7.6292 3.37005 1.46747
1334 1 1 8.12989 8.05067 3.56762 0.713895
7459 1 1 9.00659 8.78419 4.5845 1.83687
7322 1 1 8.87524 7.40807 3.39379 1.1801
1927 1 1 10.1897 6.57643 2.95612 1.08134
5690 1 1 11.8265 7.27043 3.73903 1.17051
277 1 1 11.7416 8.81761 2.72508 0.552913
648 1 1 12.9763 8.20346 3.56009 0.942345
985 1 1 11.8592 7.61395 2.62028 1.03707
610 1 1 13.2806 9.01515 4.47496 1.72694
488 1 1 13.6758 7.48892 3.80172 0.289211
5812 1 1 14.8763 7.91927 3.85024 1.97343
1537 1 1 15.0491 7.87648 2.74281 0.845306
960 1 1 16.5996 7.91004 5.13778 1.45591
913 1 1 16.7192 7.70065 3.55559 0.508569
114 1 1 1.94932 10.5728 3.24763 0.819139
2239 1 1 2.4663 9.59652 3.50802 1.33069
959 1 1 2.89293 10.2825 4.2015 2.57773
996 1 1 3.82584 9.8575 2.65136 0.869917
1863 1 1 4.0449 10.6363 3.54651 1.26628
667 1 1 2.79098 8.96094 4.34877 1.44986
1415 1 1 5.93471 9.62866 3.23223 0.171954
344 1 1 6.83608 10.1603 3.94415 0.327003
1475 1 1 7.79263 11.0081 3.0223 0.662757
1217 1 1 7.24782 9.10776 3.54606 0.666719
2874 1 1 7.99079 9.13983 4.31736 3.09962
1781 1 1 9.4549 9.36526 2.53385 0.19429
7573 1 1 9.91925 10.4648 3.35232 1.46182
183 1 1 10.5971 8.64428 3.43169 0.316358
7138 1 1 11.2242 10.7187 3.93336 0.224922
1906 1 1 12.5003 9.16164 3.4794 0.839746
2320 1 1 14.1136 9.78291 3.06401 0.249961
738 1 1 12.9183 9.96701 4.04922 0.733282
240 1 1 15.0331 9.17013 3.2763 1.42228
1942 1 1 17.0374 9.51359 4.32024 0.278102
6561 1 1 18.3614 9.44647 2.69813 1.0262
1113 1 1 0.170679 9.79814 4.48229 0.845336
1870 1 1 18.2498 9.18321 4.01657 0.140433
336 1 1 18.2197 10.469 3.32043 0.164689
1793 1 1 1.11419 10.843 3.84914 0.68694
1272 1 1 1.08595 11.4668 5.02678 0.420594
1728 1 1 2.30289 11.2339 4.17304 0.493496
369 1 1 4.6917 10.7375 2.70814 0.523216
243 1 1 3.8287 11.0883 4.58244 2.27344
2311 1 1 4.87297 9.67045 3.31058 1.01694
2980 1 1 5.12721 10.8464 4.69923 1.28583
970 1 1 5.18695 10.5109 3.78947 1.7162
1211 1 1 6.76948 10.5472 2.68715 3.70587
7538 1 1 8.4066 11.6709 3.71774 1.24114
7798 1 1 6.73206 11.1281 4.6383 1.85555
378 1 1 9.28404 11.8959 5.03341 0.543372
221 1 1 8.59955 10.3057 3.32707 1.08457
6896 1 1 8.74397 10.7723 4.28117 3.5
1487 1 1 13.9232 11.7797 3.5161 0.362796
1100 1 1 11.2841 11.6358 4.73699 3.91748
1965 1 1 14.4118 10.6916 4.36057 1.52615
1072 1 1 13.6718 10.6262 3.56396 3.27232
6913 1 1 16.2029 11.3444 3.63332 2.34232
186 1 1 15.555 9.45688 4.3478 4.38631
1130 1 1 15.8801 10.9737 5.60102 3.68959
2798 1 1 17.6236 10.3187 4.4307 0.529066
2151 1 1 16.7758 11.2835 2.71052 1.51654
6719 1 1 0.152099 10.8317 2.61586 0.998604
6563 1 1 0.509806 12.7874 4.20582 1.8266
2313 1 1 17.961 12.6825 5.54175 0.361458
300 1 1 2.86937 11.7068 3.36051 0.714889
203 1 1 3.83692 11.9931 3.74679 0.11148
2357 1 1 3.46824 11.0762 2.60718 1.74309
7474 1 1 4.62055 11.5469 3.21775 2.21635
163 1 1 5.44866 11.6887 2.07577 1.55159
765 1 1 6.53024 11.1002 3.65727 2.63031
1163 1 1 5.99094 12.2029 4.97883 0.058758
1912 1 1 8.18258 13.3985 3.82428 2.22327
201 1 1 9.84824 11.3926 3.99623 0.186701
627 1 1 11.7086 12.5384 4.35235 1.86751
7004 1 1 11.5144 11.7436 3.51005 1.03459
1438 1 1 12.7449 11.1909 3.64988 0.679641
1175 1 1 12.1262 13.5192 4.49083 1.03675
678 1 1 12.8452 11.9213 2.42363 0.316499
1250 1 1 15.3584 11.6671 2.9334 1.49918
1590 1 1 16.7144 12.7134 2.96889 0.628141
622 1 1 17.7889 12.1545 2.72923 0.455102
1184 1 1 16.6242 11.3978 4.97727 0.70284
1079 1 1 0.172803 11.9765 2.04532 0.64679
435 1 1 17.2067 13.2572 4.27755 0.315807
7670 1 1 17.2566 11.8089 1.65975 1.08775
962 1 1 0.831767 12.7221 3.01093 1.47165
878 1 1 0.451031 15.4434 3.53619 0.987675
6531 1 1 1.21036 14.7697 2.73137 0.27992
7847 1 1 2.09891 14.0457 2.90913 0.489934
7212 1 1 0.668015 14.5001 4.00993 2.75928
1895 1 1 3.78845 13.1968 4.417 0.468254
1561 1 1 4.19052 14.2821 4.08628 1.52931
7085 1 1 6.97237 13.6365 4.24985 4.61507
795 1 1 5.416 14.1926 4.11982 2.53022
292 1 1 6.86672 12.743 5.23504 3.53639
6536 1 1 7.06029 12.8758 2.1974 2.89844
381 1 1 10.3168 13.0597 3.07155 0.0510937
342 1 1 10.5736 12.1626 3.70386 1.70782
2224 1 1 11.7524 13.121 3.0289 1.23205
1676 1 1 15.0438 13.8682 2.38462 0.877522
1986 1 1 16.8179 14.5505 4.56196 0.0690959
7993 1 1 16.7315 12.6893 1.68121 1.81007
1024 1 1 16.2227 13.7877 3.97737 0.655286
1514 1 1 18.4143 14.9053 3.23061 0.72058
7480 1 1 17.2713 13.7507 5.22544 2.3202
1116 1 1 1.48952 16.8949 4.0442 2.47939
7863 1 1 2.79142 14.8717 3.02695 0.812156
1146 1 1 1.46739 15.8589 2.81561 1.24137
1486 1 1 3.68904 15.2594 3.58612 0.368311
487 1 1 6.50652 14.2409 2.26277 1.50465
1337 1 1 5.53646 15.2414 3.43957 0.779867
1128 1 1 7.70211 14.5631 3.61803 2.06506
961 1 1 8.217 15.5767 1.87284 1.1111
7489 1 1 7.8277 16.4282 2.43324 0.246889