ITEM: TIMESTEP
700
ITEM: NUMBER OF ATOMS
8000
ITEM: BOX BOUNDS pp pp pp
0.0000000000000000e+00 1.8820720577620570e+01
0.0000000000000000e+00 1.8820720577620570e+01
0.0000000000000000e+00 3.7641441155241139e+01
ITEM: ATOMS id mass type x y z v_temp
1634 1 1 0.0512557 1.11938 2.12279 2.85482
1142 1 1 17.4492 2.45052 36.3868 0.754226
7604 1 1 1.37402 17.2202 37.5177 1.50202
7210 1 1 4.2617 18.5275 2.90916 3.54609
318 1 1 2.11433 18.6984 2.91282 0.184639
287 1 1 6.53181 18.4846 0.245816 1.52145
7226 1 1 4.82103 1.71123 1.39627 1.73015
6076 1 1 5.93124 2.21377 0.65107 1.33951
7503 1 1 6.52461 0.885785 1.09661 0.55379
6017 1 1 7.37772 1.17459 37.4307 1.29921
7535 1 1 8.82558 0.368902 37.498 1.93451
2020 1 1 9.92921 0.33723 0.16944 1.05765
696 1 1 12.4486 0.122494 1.19339 2.10469
383 1 1 14.4378 0.325198 3.21478 5.00642
640 1 1 13.1964 1.7163 2.83625 0.893084
7930 1 1 16.9366 18.3269 1.63708 6.12025
554 1 1 16.5508 17.9799 35.2828 1.2452
7471 1 1 16.821 2.85872 34.4359 0.521003
1198 1 1 1.169 0.818319 1.32646 1.09946
576 1 1 17.478 1.91098 1.50382 0.120817
115 1 1 17.6289 3.6049 37.3724 0.999377
816 1 1 2.29009 3.14239 1.77794 0.47028
6995 1 1 3.55552 3.31 2.54822 0.787996
2126 1 1 6.53351 1.71411 2.36267 0.770173
172 1 1 6.2993 1.04101 37.5893 1.73107
5756 1 1 8.94875 2.28372 36.9898 2.37223
6659 1 1 8.40965 3.90949 2.89197 0.594773
1206 1 1 8.89392 0.969586 2.45927 0.886847
7660 1 1 6.35481 3.3129 37.4844 0.552199
2305 1 1 10.0506 2.15253 36.7328 1.47607
7725 1 1 11.3813 3.31407 2.45944 0.805474
6691 1 1 12.5839 1.1066 36.4537 0.267501
1308 1 1 12.6403 2.24167 1.70777 1.33719
1269 1 1 16.0676 0.287345 1.03237 1.0271
6873 1 1 12.0132 2.66674 36.4241 1.98121
7830 1 1 14.276 1.09368 2.57806 0.881409
7423 1 1 13.9828 0.964576 3.84038 4.3641
1344 1 1 16.4743 2.70392 1.50375 0.848536
7998 1 1 17.0886 4.78536 1.64248 6.60744
18 1 1 0.333749 2.21462 1.70326 0.320097
47 1 1 0.491349 3.86026 1.00409 1.03211
366 1 1 0.209518 5.20281 0.408348 5.17706
1481 1 1 2.84615 0.187573 0.641307 0.696584
7456 1 1 3.1347 5.66033 3.41741 1.62991
7697 1 1 4.85219 3.12994 36.9904 3.78875
402 1 1 3.78567 5.41489 36.2933 1.09421
879 1 1 5.14519 3.07922 1.57849 0.430151
7667 1 1 6.35677 4.00998 36.7333 1.31556
464 1 1 8.11474 3.35536 37.4963 1.86582
543 1 1 10.3742 5.34033 0.0385225 2.05879
2348 1 1 8.96935 5.40975 1.09934 2.84603
7010 1 1 14.1692 3.01684 2.24752 2.01503
73 1 1 9.80206 4.13829 0.289433 0.175151
151 1 1 16.3111 4.94391 36.5197 1.43056
1315 1 1 15.2989 1.94219 0.139018 0.345123
6648 1 1 1.30519 3.44863 1.51325 1.7764
762 1 1 16.0928 7.04696 0.387872 1.63055
791 1 1 18.4556 4.40809 36.939 3.46954
7980 1 1 18.8038 4.5245 3.31586 5.22272
802 1 1 0.481524 4.76536 1.33296 1.67394
7879 1 1 4.45101 5.15145 0.352274 4.98968
7631 1 1 4.853 3.88321 0.912435 1.13862
548 1 1 4.87656 5.92415 1.84545 0.216035
217 1 1 6.89146 4.04666 0.37257 2.25923
1076 1 1 8.41991 5.08529 1.88849 5.27187
945 1 1 6.4347 6.34196 37.6312 0.151342
697 1 1 10.1315 7.54638 36.1514 1.26051
1330 1 1 11.585 7.9764 37.4223 2.69513
1380 1 1 15.1343 3.58037 37.1959 2.31354
7911 1 1 14.0162 3.36307 0.138881 1.13429
2160 1 1 15.9691 6.41529 36.0656 1.72606
7937 1 1 17.9175 3.97739 0.881107 2.18454
1713 1 1 1.66229 3.42761 36.5495 0.61521
924 1 1 0.886945 10.7588 0.354565 5.47577
34 1 1 17.6162 4.72855 36.084 0.448603
6762 1 1 1.0381 8.61282 1.33353 1.03541
1158 1 1 3.9135 3.08947 37.4038 2.16581
997 1 1 5.71067 6.6654 1.39062 2.36162
645 1 1 4.94668 6.95023 37.2934 0.695775
930 1 1 5.01189 7.8537 0.123403 0.414736
568 1 1 7.41377 7.70559 1.16894 1.25267
7748 1 1 9.41004 8.49884 1.48116 0.372644
7921 1 1 6.90151 5.86945 2.48635 3.94438
5854 1 1 8.30727 5.8657 36.6856 1.91128
6669 1 1 13.3737 7.98087 1.66282 0.239853
6497 1 1 11.2418 7.92699 0.831467 1.38132
7420 1 1 11.1905 6.62248 0.200817 1.93515
214 1 1 11.4745 6.61594 1.13896 0.790549
721 1 1 10.4448 9.41983 0.425135 1.31797
181 1 1 12.3305 6.43688 0.587647 4.50451
193 1 1 11.5073 4.68396 1.04226 0.634002
7972 1 1 14.3424 6.69909 1.30551 2.57817
1359 1 1 14.3228 5.41726 37.502 3.20621
7641 1 1 17.8371 6.14033 1.49327 0.91596
1318 1 1 0.863807 7.85299 2.03537 2.16648
6533 1 1 0.0604228 7.59058 3.2235 2.33576
7351 1 1 2.00021 8.58835 37.0497 5.46129
7657 1 1 1.2924 11.7332 35.4703 1.00269
925 1 1 4.03873 7.84522 36.8334 6.39618
6235 1 1 6.05282 7.91838 0.814765 0.996944
331 1 1 4.8364 7.34677 36.2164 5.71297
7958 1 1 7.32647 7.73152 0.10238 1.01329
178 1 1 5.01329 9.44586 0.58733 2.99989
7335 1 1 9.04723 8.95271 2.39739 0.982451
5813 1 1 5.53192 8.78028 1.00321 1.67603
6538 1 1 10.439 7.56596 1.39202 2.4702
461 1 1 10.9386 11.3974 35.4438 1.64569
7348 1 1 12.559 5.80506 1.30448 0.884696
6705 1 1 17.9104 7.44147 37.4709 0.775324
498 1 1 12.345 7.73928 3.35125 1.62629
7851 1 1 15.9186 7.89282 2.9262 0.683471
7800 1 1 17.3006 9.29251 2.36544 1.03511
230 1 1 0.792543 6.70079 2.28029 0.750333
7734 1 1 18.7171 11.7369 36.4224 0.686494
1637 1 1 18.2232 9.33003 3.28692 0.850418
6987 1 1 5.7693 9.93427 2.46815 1.06764
7791 1 1 4.60158 7.57671 3.10567 0.930278
5753 1 1 6.27352 9.19473 0.0900148 2.35426
6566 1 1 8.34074 9.53326 1.16184 1.01475
1790 1 1 6.46019 10.8735 2.18895 0.704069
3250 1 1 8.13099 10.1693 0.26058 0.149489
1038 1 1 9.24144 7.79486 36.4107 0.917961
570 1 1 11.3314 8.9826 1.23128 2.41295
7943 1 1 11.0529 8.70007 2.1376 0.530069
2177 1 1 10.3398 8.74802 1.22969 2.47974
86 1 1 14.0635 9.22305 0.795592 1.90526
7979 1 1 14.006 9.6755 4.36751 1.25268
79 1 1 16.6309 8.27644 1.00623 2.5913
6241 1 1 16.1624 5.80698 1.58122 3.23153
648 1 1 12.437 8.45897 2.56306 1.91895
736 1 1 18.4134 8.93117 1.29355 1.9297
1036 1 1 17.3763 9.63204 37.2159 1.69856
884 1 1 17.7203 9.4531 0.666941 1.80947
340 1 1 3.27746 12.9494 1.32053 0.273713
1350 1 1 1.06462 11.9331 37.1879 0.229521
6578 1 1 4.34169 8.56445 0.394914 1.63519
1172 1 1 4.8676 11.0077 0.560895 1.86066
639 1 1 4.63183 11.9641 0.0276075 0.513053
7891 1 1 8.05618 15.2122 1.2032 0.451109
7002 1 1 9.98278 9.75626 2.85557 1.72554
1542 1 1 8.79545 10.5201 2.05681 0.65667
6536 1 1 8.56432 11.8349 1.84597 1.828
7156 1 1 12.571 9.93631 1.43806 0.536184
7452 1 1 12.4995 13.8522 0.318878 1.45432
7635 1 1 14.1811 11.2362 37.6033 0.139137
379 1 1 15.5115 11.2353 0.244186 1.13199
1074 1 1 16.2046 11.0592 37.1934 1.29972
7836 1 1 0.199968 13.9135 36.9112 0.220849
7863 1 1 2.69046 14.5686 2.45814 3.61929
7446 1 1 17.0145 11.5914 0.111496 0.916128
6646 1 1 3.39349 12.1124 2.04898 0.236127
8000 1 1 4.53449 13.3141 1.01216 2.04594
7056 1 1 4.42392 14.2076 0.594149 0.252136
7621 1 1 5.18683 11.9596 1.52255 0.561559
6252 1 1 6.96675 12.2693 0.435949 0.0948089
532 1 1 7.48136 9.92572 36.9758 2.55022
7065 1 1 7.71374 11.4048 37.3562 1.02622
7457 1 1 8.7161 13.7126 1.52788 1.06955
1178 1 1 10.7859 13.178 1.946 0.469232
7704 1 1 9.07827 11.9062 2.81597 3.37164
6699 1 1 13.2725 11.8437 0.558951 2.30568
1976 1 1 12.6249 11.6856 36.8989 0.775037
57 1 1 15.4695 9.75016 36.3382 0.0303245
234 1 1 17.4042 14.8825 0.489222 1.92544
7189 1 1 17.0812 11.6613 36.1252 1.32073
7847 1 1 1.72043 13.3992 1.27744 1.40265
6243 1 1 4.85449 14.9932 0.0768198 3.2621
7051 1 1 3.70332 14.0131 3.12524 0.964514
7610 1 1 4.97413 14.5447 1.53702 2.37778
1081 1 1 9.42651 13.9901 0.964825 0.81501
1144 1 1 7.69616 13.8124 1.56488 5.14444
6898 1 1 6.33535 14.5551 36.0283 5.72183
67 1 1 8.15044 13.0589 3.62535 4.20771
38 1 1 10.2414 13.0842 0.820948 1.58642
377 1 1 12.7681 14.3915 1.16522 3.03553
501 1 1 14.0623 12.6749 0.515271 0.807512
7826 1 1 17.5235 13.4575 0.331549 1.85414
7483 1 1 15.9414 12.4416 1.11113 2.7919
7052 1 1 17.6997 15.366 1.72958 1.92611
579 1 1 18.3792 13.4351 1.121 1.04525
634 1 1 18.0803 12.1792 0.594675 1.16352
962 1 1 1.85143 12.9286 3.87424 0.299027
704 1 1 4.68096 14.9955 36.6205 1.36482
1529 1 1 2.98838 14.5219 0.940334 10.5818
6321 1 1 3.93687 18.4233 0.366892 5.04777
203 1 1 4.28014 13.4212 2.19305 1.36047
154 1 1 6.68789 12.5082 36.4311 2.16625
734 1 1 7.58554 13.4198 37.1175 4.69457
6379 1 1 6.96155 14.4219 0.70952 1.14904
1908 1 1 10.1856 14.1886 1.69305 2.00485
7569 1 1 8.77488 16.642 0.335761 1.0499
227 1 1 9.51738 14.9676 2.38234 0.717636
1134 1 1 10.3743 16.7061 36.3555 1.27744
22 1 1 12.2716 16.7494 37.4942 3.02781
1143 1 1 14.6866 13.0855 3.26745 0.840079
1474 1 1 17.0121 14.5141 37.1333 0.666726
7548 1 1 15.7154 14.7871 1.4655 0.633616
668 1 1 17.4574 15.6747 36.3876 1.50872
559 1 1 2.86094 15.2774 36.9601 2.25886
2134 1 1 0.964567 17.9586 36.8951 1.24058
311 1 1 1.67905 15.6077 0.0518555 4.89913
7934 1 1 2.40033 17.3777 1.87365 4.58477
439 1 1 2.56908 16.0941 2.80225 1.72368
7767 1 1 5.94758 16.3944 35.4019 2.65023
399 1 1 3.74405 17.1849 1.92877 0.861126
7214 1 1 8.14835 14.9086 35.2824 2.17421
7180 1 1 8.27848 12.4319 34.9584 0.646775
6835 1 1 5.75845 18.5841 0.956036 0.277825
7206 1 1 7.41262 16.7108 1.75456 1.54989
7616 1 1 9.25283 0.602111 36.1468 0.264636
841 1 1 11.366 16.9118 1.48863 2.21783
7736 1 1 9.7925 15.2767 36.9955 0.268375
7779 1 1 11.7023 17.276 36.8186 0.789904
2343 1 1 12.7455 16.8513 36.2913 0.198234
1916 1 1 15.4534 15.7974 37.0791 2.00816
6913 1 1 15.3316 13.7306 1.73025 1.25852
2038 1 1 16.3471 16.4056 1.43024 4.1498
7855 1 1 0.413962 14.1679 1.67472 0.0408559
1042 1 1 17.1243 16.1078 0.622334 2.24754
7999 1 1 17.8683 16.1732 37.1593 0.886194
1569 1 1 1.0443 16.3174 0.570618 2.26193
7265 1 1 2.48771 1.06698 0.885327 0.249386
332 1 1 2.121 17.8571 0.83104 1.37133
6777 1 1 1.41154 18.3337 0.213563 0.673933
6866 1 1 6.36584 18.2893 1.74645 0.779196
7267 1 1 5.65544 0.147964 37.4371 2.23946
1729 1 1 4.81304 17.1481 3.04773 2.64117
43 1 1 6.00412 16.3775 0.0412787 1.13667
7581 1 1 6.85008 16.9941 36.6084 1.57204
7678 1 1 6.2625 0.440011 3.17256 2.74509
1895 1 1 5.06808 16.793 1.7972 0.180811
708 1 1 8.8592 0.0793123 1.95961 1.37199
7961 1 1 9.78567 17.7103 2.81473 1.3745
7705 1 1 12.5357 16.1608 2.53413 2.35348
356 1 1 13.4774 17.2785 0.969262 3.38268
6636 1 1 14.4102 17.6668 0.698009 1.79684
343 1 1 13.3615 16.9396 2.09515 6.2647
6723 1 1 14.2111 15.6797 1.75643 0.52123
7088 1 1 18.3454 1.37714 37.5566 2.45586
3499 1 1 16.6893 0.271614 36.9831 2.44328
7261 1 1 0.255605 17.4866 1.20271 5.53783
489 1 1 2.14935 0.722825 4.60162 0.633496
1168 1 1 5.32989 0.742231 3.64416 0.449326
445 1 1 3.60188 15.8435 2.65577 5.69218
1930 1 1 3.61749 17.8694 2.51354 3.55431
1257 1 1 5.33807 0.0140726 4.31149 1.20798
497 1 1 6.25094 1.26276 3.83125 2.45854
89 1 1 8.76869 0.571303 3.78818 6.53155
1208 1 1 7.0985 1.14277 3.2456 0.181412
7785 1 1 7.08002 18.7324 2.72751 1.50975
505 1 1 11.2483 2.05341 1.49174 0.362769
7745 1 1 11.6674 1.04662 2.26219 1.27949
1339 1 1 9.34182 0.902683 1.24101 1.06541
677 1 1 12.8772 0.804878 2.02734 0.844758
700 1 1 12.1933 1.34668 3.3747 1.11257
31 1 1 17.8032 3.50794 1.93943 4.118
7478 1 1 16.4022 0.269615 2.03347 0.275046
787 1 1 16.3865 2.08539 2.44474 0.62128
351 1 1 17.5606 0.59497 1.97272 0.882439
7647 1 1 18.0052 18.4246 0.939222 3.52723
1718 1 1 2.80971 0.265264 3.7298 5.38807
1766 1 1 2.35148 17.676 3.98597 2.82191
547 1 1 4.02038 1.64851 0.483238 1.28493
936 1 1 4.34894 2.62833 2.36712 1.19935
2026 1 1 4.78878 1.66591 4.13159 0.473238
569 1 1 4.97684 0.919983 37.2918 2.78597
566 1 1 8.09644 1.61355 2.71547 0.698416
633 1 1 6.41634 0.562469 2.12671 0.271654
886 1 1 8.22614 1.90053 3.71891 2.72546
593 1 1 10.8814 3.21403 0.5563 2.38987
173 1 1 9.34462 0.171042 3.01929 2.50207
7332 1 1 8.81394 4.25065 1.4757 0.349256
21 1 1 10.2648 2.30128 0.945646 0.120951
7155 1 1 13.2968 3.89027 3.06424 0.461466
7669 1 1 14.6994 2.0708 2.19582 0.284223
1020 1 1 14.1381 3.17558 3.77644 0.527057
859 1 1 16.7658 18.2824 2.82907 1.07359
7549 1 1 16.8948 2.21541 5.03018 0.307339
1348 1 1 0.246753 2.59268 3.54299 4.73224
7440 1 1 18.1739 1.53701 2.9132 4.8426
7903 1 1 0.923566 2.7345 2.36658 3.307
7795 1 1 1.38406 8.44962 2.78154 1.21884
7284 1 1 5.41405 3.70314 3.73047 1.97682
6767 1 1 5.91069 5.71217 3.14058 5.06231
835 1 1 6.93193 2.87296 36.8588 3.38285
2824 1 1 4.13714 5.09569 1.7438 0.335448
7718 1 1 6.03885 3.53135 0.768757 0.72817
7653 1 1 7.7408 3.59842 1.21873 6.03106
7215 1 1 6.77044 4.81034 2.0336 0.251276
623 1 1 7.50822 4.36284 2.58152 0.296628
1416 1 1 7.83409 0.648472 2.48426 0.907679
7666 1 1 9.51988 3.25957 1.1809 0.598386
492 1 1 11.6657 5.46204 1.77334 3.16907
7387 1 1 8.82856 4.76818 37.3961 0.726226
6541 1 1 14.215 4.21579 1.83857 0.685073
7246 1 1 15.5172 1.77721 2.91838 2.56553
7938 1 1 17.1934 2.28231 3.26515 3.67604
651 1 1 17.1803 3.12282 0.814136 0.864904
7844 1 1 15.3706 5.43663 36.3234 0.981185
6975 1 1 1.27422 5.86044 1.39745 0.628383
5621 1 1 2.17898 6.54734 3.32925 5.55782
6396 1 1 2.70093 6.1273 1.76349 6.61349
7659 1 1 3.6943 6.12874 1.13376 1.79895
1237 1 1 4.63485 4.1539 2.61609 1.97225
15 1 1 2.97112 4.62489 4.23504 1.63456
7251 1 1 4.00177 4.13667 1.45343 1.93948
7924 1 1 4.03187 5.85253 3.89845 3.21109
661 1 1 6.30808 4.35305 3.57494 0.378029
7532 1 1 5.47057 4.70232 2.34989 1.04744
585 1 1 7.27746 4.20831 3.49345 0.224517
934 1 1 9.91273 4.52863 2.16901 0.644858
6703 1 1 10.1136 5.31045 1.53197 1.64044
1369 1 1 9.5846 6.73827 1.27881 1.71889
91 1 1 13.2292 5.51425 2.44957 2.25436
528 1 1 8.61709 2.82963 3.31657 2.42929
985 1 1 11.0882 6.44917 2.13335 1.83006
387 1 1 14.8514 3.07322 2.97664 2.63667
1473 1 1 16.6095 3.74477 1.90622 1.18607
271 1 1 13.6957 4.12248 0.920595 1.20582
511 1 1 15.5289 1.32851 1.11679 0.404059
966 1 1 18.0139 5.07228 0.149655 0.673156
914 1 1 15.4567 3.08044 2.16881 4.7752
7432 1 1 18.425 5.32448 1.30368 2.51763
7966 1 1 3.12111 8.80389 2.20083 0.827079
206 1 1 15.6349 3.59838 0.845667 4.58479
7967 1 1 1.82181 6.83597 0.153991 0.934014
442 1 1 3.96011 9.36637 1.32755 8.77997
7944 1 1 3.27771 8.10485 37.4851 0.9678
7803 1 1 6.37606 7.25395 2.08086 2.67283
1177 1 1 7.83257 6.9403 4.0426 3.79047
6136 1 1 8.24496 6.25522 1.88798 0.104581
7663 1 1 8.56616 6.88908 1.0339 3.67803
7138 1 1 11.8385 9.24965 3.48381 3.86393
7904 1 1 7.92071 5.33978 2.85136 0.0819731
1051 1 1 8.94455 4.90385 2.86322 0.386767
7422 1 1 13.1533 5.79114 3.39202 6.38411
469 1 1 12.0381 5.99071 2.78186 0.51432
7611 1 1 14.1548 5.44839 4.10607 0.296434
188 1 1 11.598 7.40097 1.79178 1.12296
1329 1 1 12.7147 4.80274 1.26598 0.69161
5812 1 1 14.5238 7.43274 3.86173 1.66406
35 1 1 14.9249 6.38216 35.8572 1.44221
1377 1 1 15.6642 3.89428 3.17773 3.40519
2197 1 1 15.8962 6.68562 2.80596 3.03989
7544 1 1 16.0276 6.45443 4.78147 0.477444
223 1 1 15.1519 5.84935 0.317183 0.276192
72 1 1 18.7786 6.45236 1.53688 2.28342
75 1 1 17.3503 3.93091 2.78259 1.5219
2320 1 1 13.9921 7.90009 4.46313 0.655983
5817 1 1 4.94213 8.3548 1.65494 2.21359
7322 1 1 7.96641 8.01509 2.63681 0.881325
626 1 1 6.25535 8.5985 2.86697 0.947566
7738 1 1 5.72197 6.77317 3.01454 5.52006
1648 1 1 9.57233 7.39561 2.39208 0.762643
571 1 1 10.4006 7.72339 3.91575 2.69969
5690 1 1 11.0772 7.26923 3.2004 5.40401
2244 1 1 11.5656 10.4385 1.05353 0.0850489
122 1 1 9.68453 5.70699 3.99055 1.26213
1441 1 1 13.9235 7.07277 5.15192 0.33251
276 1 1 13.6787 5.58519 1.46562 0.188332
108 1 1 15.4714 8.66994 0.906988 0.591039
186 1 1 16.0463 11.2097 3.93188 1.33462
1314 1 1 0.106746 10.2318 0.163153 0.336507
1005 1 1 3.83328 7.4663 0.48511 1.68781
7326 1 1 4.92098 9.75864 1.70766 1.98497
1681 1 1 5.14024 11.211 2.69785 0.223612
6874 1 1 6.94652 8.81967 37.1432 0.525357
1301 1 1 5.04681 8.61794 2.96523 0.923138
10 1 1 6.9759 10.6727 0.422654 1.09652
7459 1 1 8.07947 9.16829 1.95397 0.648575
765 1 1 7.57315 11.6549 2.50656 2.31629
1475 1 1 7.98534 10.6392 3.48424 0.130609
672 1 1 11.8439 6.76299 3.59566 1.25444
6896 1 1 9.57288 11.1712 1.32413 3.15886
7538 1 1 9.84082 11.1898 2.48938 1.61667
1193 1 1 14.3666 5.76912 3.15737 1.75842
7185 1 1 14.3514 5.96436 2.15235 0.863815
1906 1 1 13.4434 8.2729 3.76907 0.335615
1426 1 1 12.2926 8.72015 5.15582 3.29473
1478 1 1 14.3439 8.77191 5.21972 0.420018
6561 1 1 17.892 10.4108 2.8489 0.760513
84 1 1 16.2353 9.37587 2.90303 2.81212
1093 1 1 2.40065 10.6557 0.569437 0.411481
300 1 1 2.01795 12.0628 2.54054 1.14868
877 1 1 17.1283 10.5117 0.194552 1.17942
970 1 1 6.03861 10.8111 3.19278 0.347073
7482 1 1 4.24795 10.7232 1.8313 1.12772
7805 1 1 4.29932 11.7082 2.16943 3.72757
1211 1 1 6.7857 10.0872 3.25595 0.201744
290 1 1 6.07425 11.8891 2.79231 2.64939
7643 1 1 6.87869 8.6201 1.33852 1.00178
691 1 1 8.50325 6.97616 3.0601 0.524335
955 1 1 7.25666 12.9678 1.69448 1.36282
1224 1 1 9.79298 9.49113 1.59587 0.270868
232 1 1 10.427 11.8433 1.15769 1.48068
7983 1 1 15.7237 7.73935 1.85288 1.21776
296 1 1 14.3298 10.3874 2.38959 1.57719
610 1 1 11.6954 10.3545 2.27692 3.65159
2017 1 1 14.8556 6.87479 2.4565 0.772406
712 1 1 18.3149 10.1048 1.1343 1.98476
7470 1 1 17.0823 10.0704 1.68447 1.5783
146 1 1 0.160135 10.8696 1.3784 1.21586
2662 1 1 17.0266 12.431 0.917382 2.89493
1234 1 1 18.0293 11.3529 2.47729 2.90472
7474 1 1 3.8621 12.7968 2.88187 1.30314
967 1 1 2.73044 11.0685 1.96985 1.81533
7060 1 1 1.54732 11.2384 1.54924 3.64996
369 1 1 2.47484 11.2046 3.13583 2.28494
7249 1 1 2.22679 13.6364 4.47497 0.910002
325 1 1 8.10907 13.8218 2.94483 4.69369
773 1 1 4.87466 12.5275 2.40631 2.69951
453 1 1 6.33579 11.0806 5.18524 0.827728
627 1 1 10.001 12.3485 4.49461 0.843401
7004 1 1 11.4324 12.4026 3.59286 0.740008
1103 1 1 12.1982 15.2412 2.20885 1.13027
738 1 1 12.993 9.51345 2.54981 0.209206
286 1 1 11.2066 12.4319 0.783102 0.746345
574 1 1 13.5282 10.8541 0.899341 2.05639
1107 1 1 10.7704 9.98851 1.64391 1.71108
7512 1 1 15.1935 10.8086 36.9187 1.56839
973 1 1 15.023 9.85958 3.16845 0.922857
7772 1 1 0.85839 12.4967 2.04958 1.46674
163 1 1 4.38046 11.9184 3.62777 1.22803
1486 1 1 3.43787 15.122 4.24219 4.82643
7085 1 1 4.7816 13.3255 3.08841 0.638818
584 1 1 5.92359 12.7952 1.35039 1.22681
255 1 1 6.44484 13.3157 0.60198 2.66421
688 1 1 7.86546 13.3723 6.38889 0.301866
1128 1 1 8.05576 14.4461 4.29322 1.24461
7139 1 1 8.17292 15.5722 2.61268 1.19793
1912 1 1 9.27791 12.9369 3.5187 0.684137
1139 1 1 8.07366 16.5571 2.65824 2.73355
7545 1 1 12.557 12.556 3.23079 0.150087
423 1 1 13.6241 11.8326 1.62565 1.44401
6686 1 1 11.0662 13.9341 1.0896 0.601551
7834 1 1 12.4007 13.5534 3.42745 1.08725
6824 1 1 14.517 12.5544 1.94175 1.06783
7040 1 1 12.5946 15.0458 0.307568 1.05527
6599 1 1 16.6134 13.7787 1.95296 1.14347
389 1 1 15.2346 14.1844 2.75912 2.66804
375 1 1 17.4344 13.0345 1.58935 1.87845
7867 1 1 18.1789 12.235 1.77998 1.23202
1567 1 1 17.9499 11.0811 0.911669 2.4304
2358 1 1 18.0572 14.1877 2.78155 0.783632
1445 1 1 0.573671 15.7297 3.23506 1.56707
7555 1 1 18.4156 14.6504 1.33746 0.233103
757 1 1 1.22537 14.8427 1.54832 4.87487
1485 1 1 3.74512 15.1451 1.45239 0.288504
815 1 1 7.11472 15.4953 0.317181 2.62651
7926 1 1 6.31668 15.7156 1.90944 0.611067
749 1 1 7.7937 16.6854 37.1474 1.34959
6851 1 1 10.5077 14.094 2.74601 0.696477
872 1 1 7.63404 16.8593 0.567562 3.03193
7700 1 1 7.22062 16.6041 4.76463 4.47332
7489 1 1 10.9682 15.2241 3.69799 6.63721
256 1 1 8.88271 16.1977 4.23758 0.787998
976 1 1 10.5533 12.7299 37.5494 0.412296
381 1 1 11.1825 14.7005 1.85931 2.01289
273 1 1 15.296 16.0585 1.8591 2.24386
7787 1 1 18.3013 15.5455 35.3652 0.679708
2367 1 1 1.17645 17.2551 0.854073 3.05152
5999 1 1 1.95876 15.7615 1.81959 1.03522
7887 1 1 0.547251 14.2356 3.10375 0.537218
670 1 1 16.0665 18.5348 4.52516 0.863843
7968 1 1 0.498887 15.5203 1.01249 3.32718
1509 1 1 0.207871 14.9852 2.21782 0.732779
6459 1 1 1.81408 16.5777 1.14431 1.83572
1446 1 1 5.16467 0.655775 1.01092 1.49705
1328 1 1 5.18455 17.7707 0.999495 3.57911
7613 1 1 5.99302 16.6803 2.80831 1.95789
3576 1 1 8.64373 17.1589 37.0962 1.98854
292 1 1 6.96487 13.0744 2.88861 0.849796
1582 1 1 8.67841 17.8216 1.61216 1.58456
814 1 1 10.1054 17.2118 35.626 1.00567
7620 1 1 7.82726 17.9615 2.50702 0.537322
7230 1 1 10.6625 17.6842 2.15811 0.118965
1505 1 1 9.89419 16.315 4.28126 0.104144
7149 1 1 11.2893 16.4681 2.62476 0.886456
781 1 1 11.0861 17.3038 3.71061 0.231675
2661 1 1 12.0314 15.9198 1.43054 1.14071
2150 1 1 13.2116 15.7273 37.5778 2.36477
629 1 1 16.114 15.5498 2.51037 0.634894
1928 1 1 0.159217 18.0942 2.86197 0.307235
2033 1 1 16.1341 17.8483 1.15447 0.262675
7188 1 1 1.20713 17.0873 4.3322 1.29867
686 1 1 1.4122 17.908 2.51235 0.726305
7585 1 1 1.185 18.4232 3.2879 0.926556
1140 1 1 4.16995 0.958191 2.53337 0.585856
1453 1 1 4.78902 17.6272 3.92915 3.53072
487 1 1 6.02548 14.7902 2.24033 1.57191
7754 1 1 2.42109 15.2391 4.70515 0.91601
605 1 1 7.01561 18.6674 1.08501 1.56949
7996 1 1 7.99046 18.7697 1.13865 0.877868
829 1 1 10.1768 17.6226 0.788938 3.34582
450 1 1 8.65542 17.0015 3.37147 1.2249
6027 1 1 11.7657 0.526259 5.39679 0.363327
7987 1 1 10.4835 18.4894 2.99769 0.764368
6673 1 1 11.7823 18.2638 3.4235 1.02527
1785 1 1 11.7015 17.6539 2.47853 1.1795
2106 1 1 14.6033 0.638646 1.57577 5.7087
1110 1 1 13.0257 16.1472 0.849619 0.451993
1200 1 1 12.9626 17.8588 1.58313 0.201105
129 1 1 18.5473 0.706117 1.21215 1.43814
788 1 1 0.226431 17.8078 0.0270351 0.48734
194 1 1 1.8368 0.0234505 1.09364 1.09441
310 1 1 0.303537 0.581026 4.01926 0.231452
915 1 1 2.89112 1.7707 3.59653 1.03394
7122 1 1 3.61051 17.7736 3.80472 2.10359
175 1 1 4.85235 1.75946 2.78048 0.367354
1367 1 1 1.30533 0.630946 5.31218 0.593019
7123 1 1 5.63627 2.14811 3.76486 0.412793
1331 1 1 5.27494 0.374362 2.43494 5.8005
7762 1 1 6.32756 2.22092 4.76947 1.18902
293 1 1 7.88368 0.400971 4.65519 0.498281
7964 1 1 9.98382 1.28197 4.34753 1.19216
1658 1 1 8.52954 1.40745 4.49242 1.0208
1749 1 1 9.7221 1.0493 3.3678 0.147429
671 1 1 10.0699 0.318413 4.26595 4.43275
1213 1 1 12.5306 2.52406 3.37994 0.231911
1704 1 1 12.2666 17.8147 4.05601 2.08434
180 1 1 15.7514 17.7422 3.36869 2.53619
906 1 1 13.339 0.656412 3.20182 0.144431
982 1 1 15.2081 0.825198 3.71451 0.729907
427 1 1 18.1368 2.23724 3.94509 2.52805
7914 1 1 18.1057 0.706295 4.7775 0.651143
1205 1 1 16.4793 0.710314 3.62812 1.21763
1265 1 1 1.30989 1.51354 4.76133 1.66707
1714 1 1 2.1028 5.07918 1.70658 2.88723
1373 1 1 3.51777 3.02684 5.51324 2.86966
480 1 1 4.06542 0.459427 3.5309 4.83067
656 1 1 6.00527 3.68305 2.75605 1.59638
56 1 1 7.56 3.25329 3.65367 1.43867
7300 1 1 6.84708 2.61937 3.95683 2.7364
7896 1 1 6.96546 3.97759 4.47958 0.402803
1543 1 1 6.86116 2.67967 2.98651 0.463577
6986 1 1 7.02491 2.55958 1.73866 1.27338
96 1 1 9.56971 2.17301 3.38139 2.89051
1852 1 1 7.37427 2.36085 5.00814 0.606347
385 1 1 7.85949 3.07622 2.37287 1.41562
94 1 1 9.68372 2.62999 2.36162 1.44256
824 1 1 10.564 0.741874 2.65062 0.569754
7989 1 1 10.6441 2.55515 2.68562 0.520834
553 1 1 11.1106 2.14792 4.30799 2.1248
100 1 1 11.412 2.04917 3.06903 0.135786
742 1 1 14.3205 2.95197 5.00178 0.492814
946 1 1 14.2541 1.90142 4.55685 0.263981
1413 1 1 15.3141 1.80741 4.09271 2.55407
314 1 1 18.6156 2.80157 2.1493 2.41949
874 1 1 0.131491 2.96139 5.27655 1.38235
1279 1 1 2.11469 3.1366 3.16081 1.45667
109 1 1 3.3445 3.05566 1.50467 2.20996
3 1 1 3.76102 4.23754 0.252392 2.21328
1202 1 1 4.6629 3.74377 4.40089 1.85712
527 1 1 5.58533 3.85626 5.23394 2.44319
1376 1 1 6.91115 3.75176 6.42142 9.19763
479 1 1 8.99914 6.23355 6.07694 0.579082
1378 1 1 9.68988 4.57905 4.93644 2.00409
2736 1 1 7.49301 3.15369 5.74434 1.47048
3337 1 1 11.45 4.38396 2.04131 1.22845
7625 1 1 10.4322 4.11863 1.21775 0.852583
1664 1 1 11.9508 2.62926 0.922072 2.22794
685 1 1 12.1202 5.00417 0.182895 0.21338
7250 1 1 14.6704 4.1535 4.00157 2.12674
602 1 1 16.6322 4.71077 3.65324 1.006
7950 1 1 17.3311 18.8023 4.15828 1.89559
1239 1 1 16.6186 3.61561 3.5979 3.63829
155 1 1 0.357994 3.51133 3.12187 1.10947
6152 1 1 2.68888 1.55029 2.18111 1.27055
7366 1 1 18.4938 3.5175 4.21667 1.12117
7841 1 1 18.3872 2.84997 1.12519 2.7585
1596 1 1 2.07475 7.79646 2.00635 1.11719
1717 1 1 4.74271 5.41252 2.94595 2.45854
158 1 1 2.72589 7.77746 1.16785 1.48215
1883 1 1 5.34767 6.25803 4.09257 0.0499079
580 1 1 5.06806 2.8021 2.99415 1.17809
5739 1 1 8.01704 5.45912 3.90469 0.633888
890 1 1 8.05462 2.6909 4.4305 0.0683718
2103 1 1 10.2896 2.81852 4.0285 2.39878
140 1 1 11.7361 5.04219 3.73419 0.747707
281 1 1 12.2057 4.21427 4.06429 0.916744
1262 1 1 12.2619 6.18943 5.59464 0.378077
446 1 1 12.5568 3.83822 5.00306 0.86122
2075 1 1 15.1821 5.74537 3.98501 0.941865
581 1 1 16.0354 4.75933 2.44469 5.15498
7468 1 1 16.0946 2.77411 3.12277 1.51605
2432 1 1 17.1581 4.00766 4.78216 0.16767
1336 1 1 15.7207 3.81934 6.09359 2.49708
148 1 1 17.9222 5.2428 4.07165 1.31253
190 1 1 0.50491 4.19691 2.34785 1.05516
3586 1 1 0.625802 4.43194 4.21405 1.91306
7683 1 1 1.78963 6.78513 4.38389 1.49733
238 1 1 3.88121 7.362 5.18755 4.36042
729 1 1 5.28979 5.52928 5.45663 0.093342
1754 1 1 2.3237 5.83694 4.1072 0.522611
440 1 1 8.24242 7.35215 4.96366 2.37087
2397 1 1 6.99605 5.68678 3.54386 2.64518
1405 1 1 7.1742 7.02921 2.71156 1.83066
1194 1 1 9.08906 6.05453 2.79509 0.554336
1466 1 1 8.10659 5.51376 4.94006 0.781659
177 1 1 10.61 4.71962 2.92387 1.06348
575 1 1 11.0489 6.12913 3.90289 2.85133
488 1 1 13.0403 7.10745 3.95583 2.75243
1759 1 1 10.9614 6.46659 5.01518 4.79355
6463 1 1 13.5924 6.71101 2.09729 1.08033
591 1 1 16.2354 5.76932 3.67478 2.23177
7273 1 1 16.63 7.64865 3.78578 1.86912
3565 1 1 15.7443 6.97559 3.85259 0.411297
444 1 1 18.7812 6.39242 3.27043 0.205945
481 1 1 1.34101 7.4431 2.79882 0.1526
1942 1 1 17.0427 9.86315 3.4547 0.517095
1562 1 1 1.38126 7.68522 3.75406 0.490206
134 1 1 3.12931 6.83853 4.06967 4.58366
875 1 1 0.886794 6.11459 3.82403 2.07657
983 1 1 3.98831 7.38009 3.98511 0.266574
131 1 1 2.46702 7.74429 3.07109 2.14855
7862 1 1 4.9356 7.07302 4.63826 2.06651
541 1 1 9.13511 7.53917 4.32269 2.33057
1802 1 1 9.14371 9.11149 5.08408 0.651027
557 1 1 9.14013 7.08381 5.40218 1.22969
1069 1 1 12.4983 6.61893 1.90748 2.38757
1781 1 1 9.16641 9.72656 4.02479 3.20371
1422 1 1 13.8872 4.74415 3.49573 1.15117
1833 1 1 13.6648 7.65786 2.65481 3.51086
960 1 1 16.9272 7.76252 2.27802 1.9279
305 1 1 17.1564 8.15695 5.17028 0.0602652
1183 1 1 14.943 5.13269 1.78399 0.0782018
1000 1 1 18.3528 8.36748 4.39311 0.353282
1709 1 1 0.253549 6.30148 4.74268 1.75945
2357 1 1 4.15423 11.0954 3.048 0.88745
2110 1 1 0.981325 9.53955 3.00889 0.448112
1399 1 1 18.6017 7.33699 4.47233 0.0741415
1113 1 1 0.431924 9.49483 4.20029 0.569774
7845 1 1 0.18937 11.5741 0.598367 1.06072
114 1 1 1.96654 10.4578 2.4936 0.971494
1917 1 1 3.5009 7.74233 2.58213 0.944046
1280 1 1 2.09744 8.87991 2.27847 1.40557
478 1 1 6.63656 9.70651 4.35465 1.84456
1415 1 1 7.48322 8.66726 3.41377 2.25841
378 1 1 9.87645 10.4399 3.64906 0.412688
374 1 1 9.82248 11.2831 4.69505 4.07435
7531 1 1 10.0285 10.4356 5.36685 3.01869
1460 1 1 12.5755 8.4533 4.1994 0.119845
641 1 1 14.2952 10.8789 5.89681 3.59915
6875 1 1 15.9001 10.4215 2.73771 2.45896
1870 1 1 17.5934 9.33341 4.16948 1.78023
6719 1 1 18.3637 10.4282 4.03148 2.79141
1276 1 1 2.49794 11.8403 5.09221 2.0857
336 1 1 0.268023 10.5016 3.1043 1.98375
916 1 1 3.07884 9.24777 4.82771 0.713682
1863 1 1 3.05805 10.3784 4.64411 1.09108
2311 1 1 3.68592 9.67922 3.18914 2.13043
1728 1 1 2.8987 12.3648 4.16232 0.296468
408 1 1 4.4189 13.3237 4.12595 1.2402
1417 1 1 5.7686 9.62414 3.52889 0.591726
365 1 1 6.43512 11.8787 1.49039 2.02199
1465 1 1 7.24047 7.84727 4.09948 1.74674
1001 1 1 6.58371 9.81538 1.17153 2.07361
1046 1 1 7.35366 10.4277 1.96568 1.17333
277 1 1 11.1868 10.2391 3.68675 0.793575
64 1 1 9.02151 11.8844 4.11533 1.34526
241 1 1 10.5395 11.3427 5.73664 3.22293
1017 1 1 12.4994 9.87899 4.42296 0.690975
7573 1 1 10.5807 8.90131 3.56547 3.67785
7739 1 1 11.9202 7.59027 4.28618 0.836725
433 1 1 12.6446 12.1289 1.4876 1.5016
2062 1 1 10.8018 11.7341 4.50451 0.328535
1706 1 1 15.0602 11.2166 5.43821 0.659436
7444 1 1 13.1591 9.80486 3.59972 3.13295
386 1 1 14.7195 11.9275 3.11573 3.721
1533 1 1 15.2876 9.16574 5.41425 0.36988
683 1 1 16.4594 11.5122 1.03129 1.16109
1965 1 1 15.0026 9.69386 4.21258 3.07065
1349 1 1 16.7421 10.9898 2.24668 1.55525
7350 1 1 2.10663 11.0602 4.18163 0.920175
7927 1 1 3.32412 10.7112 6.83521 4.69115
243 1 1 3.59085 11.2402 4.42185 1.08676
863 1 1 0.827299 10.4 2.04746 0.366063
1958 1 1 5.88432 14.4645 4.04833 2.5882
344 1 1 5.1334 10.8912 3.86642 4.47297
216 1 1 7.22498 11.0952 3.78224 5.87334
1163 1 1 6.03931 11.6107 3.95369 1.17266
699 1 1 6.95205 12.013 3.42448 0.689123
823 1 1 7.87431 12.2099 4.18939 3.64137
1545 1 1 12.9456 11.3736 5.51493 0.954549
1165 1 1 10.0263 11.65 3.51366 2.6972
7984 1 1 10.8692 11.2573 3.62843 4.79015
6590 1 1 11.862 11.4476 1.87645 6.24851
6750 1 1 11.826 11.6623 0.569984 1.56612
1187 1 1 13.4895 13.0919 2.94768 0.174147
1676 1 1 13.6406 14.1174 3.66507 0.163059
1087 1 1 14.4309 10.7313 4.37411 3.62915
1351 1 1 17.7442 11.4798 4.89684 0.605616
1528 1 1 0.183446 11.7865 1.85791 0.457037
1360 1 1 0.975735 12.1606 3.20425 0.751423
1116 1 1 1.19104 14.6133 4.64911 3.54615
6720 1 1 5.86473 11.8752 4.95328 0.0523806
6563 1 1 0.75289 12.873 4.14466 0.577074
1082 1 1 3.37946 12.4706 5.81107 0.390515
1526 1 1 6.11453 14.756 5.51804 0.39857
7376 1 1 5.42745 11.2821 5.8355 0.119065
1448 1 1 7.00977 14.5037 2.38764 1.81152
1210 1 1 9.1955 14.0746 2.99578 2.55358
6683 1 1 8.63964 12.9105 5.69793 0.453362
7464 1 1 8.58621 11.9153 6.23685 0.311399
7990 1 1 9.38895 13.7584 4.53042 0.381216
221 1 1 10.8854 10.9201 2.3254 1.12044
1590 1 1 14.397 14.43 4.41438 1.70549
1147 1 1 11.572 13.9795 4.44586 0.143614
7993 1 1 16.4267 13.9527 3.22918 0.484022
818 1 1 16.626 12.7535 2.61713 0.266509
669 1 1 17.276 11.7448 1.68791 1.33997
2798 1 1 15.3618 12.3218 3.7951 2.2521
259 1 1 0.181269 13.3321 2.11746 0.282414
1971 1 1 18.7307 13.0764 3.56235 1.40527
240 1 1 15.3973 10.6773 4.60613 2.4372
608 1 1 0.279303 16.4938 4.03576 0.983083
126 1 1 0.692608 17.754 3.84502 4.59506
1282 1 1 1.61878 15.957 3.71851 1.31181
2755 1 1 2.5487 14.644 5.5788 0.285146
795 1 1 3.18071 15.0978 3.31762 0.21157
840 1 1 5.72453 13.1434 4.16565 2.17066
834 1 1 6.07115 13.9421 1.39339 1.52558
1337 1 1 5.2417 15.3149 4.05278 2.13749
684 1 1 5.98601 15.2603 0.321136 4.06968
504 1 1 7.25959 15.5292 1.63368 3.44642
902 1 1 6.15084 15.8854 3.61468 0.258393
391 1 1 6.92972 14.9163 4.72917 2.3852
452 1 1 7.76858 14.8128 3.34464 0.323042