ITEM: TIMESTEP
2700
ITEM: NUMBER OF ATOMS
8000
ITEM: BOX BOUNDS pp pp pp
0.0000000000000000e+00 1.8820720577620570e+01
0.0000000000000000e+00 1.8820720577620570e+01
0.0000000000000000e+00 3.7641441155241139e+01
ITEM: ATOMS id mass type x y z
761 1 1 1.60082 2.02531 0.27635
7640 1 1 18.6479 1.92086 36.9565
7651 1 1 2.45505 18.3001 2.03488
732 1 1 2.69441 17.4982 37.6086
408 1 1 1.90538 1.08717 0.605703
1301 1 1 5.1436 0.620216 2.47641
770 1 1 4.74871 18.5771 1.56842
7701 1 1 6.22031 18.4219 36.5773
377 1 1 9.80377 0.696348 0.818676
7620 1 1 6.52513 18.6847 37.5196
17 1 1 7.33197 1.95648 2.45033
57 1 1 8.68211 0.940389 0.759353
20 1 1 10.2849 0.371237 37.4378
7984 1 1 11.1418 18.5425 2.82174
26 1 1 13.5728 0.00184328 2.39388
746 1 1 14.1985 0.754462 1.28619
511 1 1 15.6846 0.692364 1.2921
835 1 1 17.1796 1.23042 1.06321
324 1 1 18.3806 1.07963 2.27088
798 1 1 15.4589 0.320971 2.55238
762 1 1 1.51659 1.79854 36.8275
7639 1 1 3.09935 2.67611 35.8299
50 1 1 4.17926 18.7476 37.1639
41 1 1 4.1147 0.792065 1.82232
37 1 1 3.79451 1.73313 37.5161
6 1 1 5.13958 1.09228 0.529999
376 1 1 5.79362 1.70444 1.04595
7611 1 1 8.04898 4.13931 1.74765
765 1 1 6.321 2.38558 37.6202
380 1 1 5.85721 2.32522 2.84863
93 1 1 7.86235 1.61393 1.48135
7698 1 1 7.98186 3.26902 0.527346
780 1 1 9.48568 1.54026 0.22256
28 1 1 10.9475 3.11396 0.970557
7627 1 1 9.74332 1.02467 1.84981
422 1 1 10.1993 2.36001 2.51233
425 1 1 10.532 0.642002 35.5325
65 1 1 13.9311 1.87035 2.18285
387 1 1 11.9947 2.47019 0.956672
7626 1 1 10.9312 1.39442 2.02393
79 1 1 14.3751 2.67337 37.3968
786 1 1 15.995 3.94113 1.94211
7636 1 1 13.7103 3.70127 1.40094
7986 1 1 15.7059 4.81417 2.18205
1196 1 1 14.4524 2.95124 2.77004
109 1 1 16.6881 2.01611 37.2687
439 1 1 0.0330858 0.870324 0.544193
402 1 1 17.6519 2.08037 37.325
77 1 1 16.354 1.69212 0.681852
479 1 1 0.237026 2.4424 0.626437
441 1 1 1.91486 4.69693 3.10479
806 1 1 0.177192 4.37113 0.397207
127 1 1 0.815868 5.05103 0.184184
885 1 1 3.62621 3.87407 0.479245
368 1 1 5.49947 2.88681 35.8353
96 1 1 4.61601 2.12534 37.0449
533 1 1 5.37897 2.20678 0.145951
137 1 1 6.71854 5.75458 36.249
143 1 1 8.01432 1.8048 0.368184
461 1 1 10.1907 3.91849 0.954916
7982 1 1 10.1175 3.38128 36.7181
149 1 1 11.7023 3.52585 37.1414
516 1 1 12.177 2.40136 36.2172
7591 1 1 12.2518 6.59754 37.2975
476 1 1 13.4196 5.08172 0.668752
506 1 1 14.1406 4.42173 0.768714
7996 1 1 16.8366 3.1266 37.3474
117 1 1 15.4692 6.30989 0.30605
7603 1 1 18.4914 5.15053 1.26748
518 1 1 0.395346 4.1589 36.6836
7359 1 1 16.2899 6.08081 0.916993
481 1 1 18.7984 7.34213 2.1652
808 1 1 0.645737 5.87117 1.86001
49 1 1 4.01207 5.85009 3.19848
573 1 1 4.43347 5.4688 0.193508
169 1 1 2.44181 6.07345 37.0059
456 1 1 5.0918 4.43138 0.107873
7697 1 1 4.74456 4.14228 0.956131
7723 1 1 5.56992 4.97871 36.6233
534 1 1 7.98495 5.98956 1.32345
135 1 1 8.18625 4.46606 35.639
934 1 1 8.64195 5.21146 0.709036
219 1 1 8.39044 5.09091 37.1658
1309 1 1 10.6063 5.13841 0.287727
7423 1 1 9.00251 5.75555 1.45224
7672 1 1 9.50572 5.18777 36.2769
581 1 1 11.336 5.66442 0.879137
538 1 1 11.9454 4.96735 0.365409
547 1 1 12.8192 3.61028 36.764
72 1 1 14.5288 4.78812 37.5245
7756 1 1 14.8586 3.46879 2.00965
80 1 1 15.4962 4.99088 0.312185
110 1 1 14.026 6.18125 0.124367
760 1 1 18.0155 4.6718 0.0953288
559 1 1 17.6894 7.32358 1.62482
159 1 1 0.39341 6.47068 37.3153
125 1 1 0.796548 8.85384 36.5356
7729 1 1 3.24278 4.33077 37.0745
44 1 1 2.17016 7.20242 36.8441
131 1 1 3.97347 7.4882 2.67369
7700 1 1 5.11976 5.51149 1.36282
94 1 1 5.82417 6.78425 36.9521
7736 1 1 7.41185 6.60109 37.3515
7699 1 1 7.32555 6.64728 0.745342
217 1 1 9.58705 5.9322 2.61541
142 1 1 8.39229 7.65659 0.563588
145 1 1 9.30625 3.71757 0.407701
583 1 1 11.2153 6.7 36.8107
100 1 1 13.5956 5.81804 36.7961
502 1 1 10.5244 6.39876 0.732182
177 1 1 11.1503 6.72117 1.6332
150 1 1 12.5025 4.25143 1.01284
106 1 1 12.1389 4.55797 37.1282
231 1 1 14.9927 6.09965 1.78287
510 1 1 18.6807 8.69142 37.2053
7798 1 1 13.9824 6.8419 1.95188
7716 1 1 17.9104 6.7801 37.2862
153 1 1 1.53834 8.20867 1.58134
195 1 1 0.469027 7.53854 0.203009
526 1 1 3.59797 8.58035 36.5355
1323 1 1 0.419375 8.50452 0.496038
524 1 1 3.80042 6.62243 0.154434
930 1 1 4.69152 6.48575 37.4654
529 1 1 2.6576 5.76199 0.297478
1401 1 1 5.99822 8.48856 1.95402
138 1 1 6.36076 8.25092 1.02311
176 1 1 6.09233 7.15345 0.292533
1461 1 1 8.81197 8.86927 37.6407
527 1 1 6.83832 7.87263 37.5625
178 1 1 8.66616 7.75178 1.58719
973 1 1 10.5158 7.40846 1.29464
942 1 1 12.1411 8.44363 2.41056
498 1 1 10.9331 7.91841 2.22501
224 1 1 10.4765 5.96962 1.71312
633 1 1 11.7218 6.90831 0.80626
1067 1 1 12.6091 8.03966 0.593635
187 1 1 14.0395 8.30653 36.7616
989 1 1 12.5327 5.75879 0.237934
557 1 1 16.9548 7.32762 37.1293
552 1 1 14.1151 8.60675 1.88847
107 1 1 16.0198 7.31978 0.055799
7748 1 1 12.2441 7.42874 1.9558
594 1 1 15.881 6.06332 2.46395
7758 1 1 17.8585 8.63366 0.597152
593 1 1 16.601 6.71909 3.14809
238 1 1 16.9526 8.23129 0.0817821
7757 1 1 0.213685 9.85261 36.9686
4 1 1 18.0051 10.1382 1.13366
7769 1 1 2.41895 10.3718 37.1955
925 1 1 5.32823 9.70878 0.941921
7808 1 1 5.83053 10.5534 1.25711
7880 1 1 1.44872 12.3993 37.4299
167 1 1 3.74973 10.1807 35.3293
7734 1 1 8.24384 11.2694 0.560548
216 1 1 6.72581 12.1282 1.653
7772 1 1 7.30019 7.88279 0.822642
218 1 1 10.8265 9.63911 37.5726
7788 1 1 7.50291 10.3988 0.90496
262 1 1 9.71415 9.71315 37.0052
1109 1 1 9.1366 9.95444 0.444906
585 1 1 14.8948 7.05038 0.660978
578 1 1 11.6272 7.72493 1.26909
665 1 1 11.5191 9.00998 0.571113
589 1 1 14.663 7.53687 37.2121
7432 1 1 13.1872 9.61362 0.623206
230 1 1 15.3664 9.35225 2.10231
634 1 1 15.7015 7.7438 1.05289
190 1 1 16.6549 7.13744 1.03954
564 1 1 0.394029 10.184 2.06745
186 1 1 14.8866 8.1574 0.3318
124 1 1 0.250648 9.93707 0.896749
7796 1 1 13.5689 8.45733 0.14941
7714 1 1 16.8537 8.87457 2.06757
207 1 1 3.9793 12.9558 37.3838
7804 1 1 0.45342 11.5803 2.0205
1003 1 1 3.36208 11.0125 1.3815
163 1 1 7.24553 11.4773 0.108634
645 1 1 3.50869 9.22796 1.65299
652 1 1 5.95462 9.3589 37.3317
290 1 1 5.20794 10.69 0.011186
613 1 1 4.4271 10.6596 1.17708
1006 1 1 6.98075 11.2597 36.5471
1010 1 1 4.72888 12.8818 1.99002
256 1 1 8.86716 11.9684 2.08736
7827 1 1 12.0621 9.43166 2.18061
580 1 1 6.78129 8.87919 3.56659
7780 1 1 9.96342 11.0369 0.900312
227 1 1 11.6435 9.59794 36.1303
7784 1 1 11.7141 12.5901 3.55549
308 1 1 12.8582 10.5216 1.14244
982 1 1 13.3593 12.9907 0.943476
626 1 1 14.1625 10.1884 1.29419
7428 1 1 12.1023 11.2626 37.6283
200 1 1 17.456 8.85922 3.05932
233 1 1 2.29096 11.1524 2.42644
7879 1 1 0.867421 10.6573 0.647876
7835 1 1 2.40096 12.6684 0.257987
204 1 1 1.15924 13.5211 37.6323
962 1 1 18.0343 12.0998 0.293463
7968 1 1 1.33243 13.1407 36.6217
337 1 1 5.64226 13.3488 2.92281
7856 1 1 9.20313 12.9577 1.27131
7811 1 1 7.98038 12.2785 0.127911
7541 1 1 7.82806 12.8622 2.54906
261 1 1 11.0343 11.5995 1.43883
7468 1 1 9.50232 11.0431 37.3304
705 1 1 10.9583 13.752 0.800431
7829 1 1 12.7463 13.9909 2.07852
301 1 1 11.6378 10.9158 36.6486
7868 1 1 13.6209 13.3128 36.8404
268 1 1 13.8414 12.4462 0.0804403
595 1 1 15.1775 12.5964 36.7737
639 1 1 16.5923 13.1768 0.191177
1040 1 1 16.8495 12.8792 1.08491
393 1 1 18.211 10.1515 37.6016
7924 1 1 18.4473 12.9773 0.52102
397 1 1 18.7746 14.2611 1.31972
7442 1 1 0.873209 13.7298 1.62852
358 1 1 2.9294 13.3289 2.07142
7525 1 1 0.467095 12.7423 37.2947
730 1 1 3.81682 14.7763 35.2334
288 1 1 3.89649 13.3558 2.66077
725 1 1 4.29366 11.1589 37.3575
1532 1 1 6.67907 12.801 2.57873
333 1 1 9.19456 10.9084 2.29462
344 1 1 8.04838 14.305 0.207145
697 1 1 9.06989 13.7787 0.473664
660 1 1 9.73586 12.73 0.164567
264 1 1 9.46387 14.8019 37.2243
655 1 1 10.9746 16.1451 1.21475
257 1 1 11.7488 12.3835 1.06146
7864 1 1 11.6796 13.7868 2.77855
379 1 1 13.1171 14.1668 1.20779
747 1 1 14.0363 14.5021 0.776037
676 1 1 13.4151 14.1235 37.3946
666 1 1 13.5697 15.2205 37.4326
675 1 1 12.9905 16.3328 0.0527543
7876 1 1 15.6402 14.8992 36.5753
278 1 1 14.5053 14.4086 1.6399
7440 1 1 15.2491 14.2168 0.0171162
758 1 1 0.747283 15.1651 1.64367
7888 1 1 3.16139 14.2292 1.3246
776 1 1 2.8657 15.8518 35.7493
300 1 1 4.67055 12.1605 36.9381
370 1 1 4.17036 15.4333 0.605329
721 1 1 4.18746 17.6224 0.914346
1173 1 1 5.44967 14.9335 37.6231
1573 1 1 8.11369 13.305 0.876365
7901 1 1 6.91753 16.2492 2.02061
7937 1 1 7.47901 15.2168 0.533307
259 1 1 10.001 14.1867 0.701392
700 1 1 7.8656 14.54 1.20049
21 1 1 10.0387 15.3225 35.6823
373 1 1 9.2817 14.9961 0.619195
391 1 1 11.973 16.6725 0.0310143
258 1 1 9.85937 16.2738 36.0229
1145 1 1 10.5422 15.239 0.0836395
7543 1 1 11.3526 14.7199 0.560117
7914 1 1 14.2117 17.0714 2.41987
706 1 1 12.5921 15.1277 0.58149
670 1 1 15.2524 15.4486 1.59327
745 1 1 14.7579 15.7552 3.77357
305 1 1 15.0061 13.2745 1.62771
7561 1 1 16.4759 14.5072 37.0455
793 1 1 18.0249 16.0718 1.2026
7635 1 1 0.163511 18.4425 0.848515
753 1 1 18.4195 17.5196 1.50177
438 1 1 0.680881 16.5597 0.168372
7887 1 1 1.05524 17.7574 0.422755
399 1 1 0.681836 16.5025 1.25948
1125 1 1 3.47241 16.0733 1.04549
327 1 1 3.34872 16.4589 37.1083
7573 1 1 5.17975 16.5041 2.16431
85 1 1 4.6604 17.1371 0.147607
7971 1 1 3.40657 17.9253 1.6563
7615 1 1 5.76842 15.6803 3.5848
340 1 1 6.65185 17.4516 3.1682
51 1 1 6.47125 14.9555 37.368
385 1 1 8.1352 0.30274 1.41277
388 1 1 9.51271 16.8108 36.7579
381 1 1 9.02893 17.7005 1.37375
304 1 1 10.3582 17.6185 37.2662
7983 1 1 10.9074 16.3114 0.208974
784 1 1 13.2464 0.442321 0.944918
792 1 1 13.4886 18.3455 3.32833
353 1 1 14.741 16.4669 1.79859
752 1 1 17.3263 17.9707 1.00858
6720 1 1 16.3973 17.6685 2.87046
7478 1 1 14.0376 17.7438 1.53947
789 1 1 16.4281 18.7361 2.19283
795 1 1 17.4025 18.3843 3.18091
40 1 1 18.7063 0.428352 3.01407
319 1 1 0.987506 0.233228 0.76111
754 1 1 18.3588 17.0417 0.57149
7608 1 1 1.34775 1.47999 1.48795
731 1 1 1.87054 18.1373 36.9707
405 1 1 2.65717 1.82401 36.36
321 1 1 2.28092 1.7891 2.56614
363 1 1 5.61109 17.9102 0.997542
7215 1 1 4.01281 0.280658 0.432714
7610 1 1 6.32971 18.3522 1.98628
60 1 1 6.11598 16.1907 37.1409
29 1 1 6.1318 16.595 1.01046
744 1 1 9.65649 0.174583 4.09221
1144 1 1 7.20882 18.5224 36.8852
67 1 1 8.9256 18.6065 0.838409
824 1 1 11.8429 0.690407 2.00705
785 1 1 10.7229 18.0048 1.72355
829 1 1 11.7341 18.3136 0.696407
389 1 1 12.1498 18.04 1.88084
874 1 1 13.8585 1.06357 0.372392
429 1 1 10.7349 2.06953 0.736432
396 1 1 15.0391 1.30399 0.655803
356 1 1 17.9504 0.139727 0.949335
33 1 1 18.5022 18.5788 2.22749
477 1 1 18.458 0.659471 36.191
437 1 1 17.4236 17.2913 3.05235
47 1 1 2.71454 0.452218 2.52867
12 1 1 2.38034 0.249078 0.98211
362 1 1 0.829531 1.15914 2.22167
889 1 1 3.77887 2.0929 2.51602
409 1 1 2.97391 18.1584 5.02231
504 1 1 6.71944 2.80405 2.30471
336 1 1 3.92414 0.209272 2.5778
1122 1 1 4.32308 1.50269 3.37402
7616 1 1 6.6648 1.95674 1.44293
774 1 1 7.34692 0.0738746 2.05701
779 1 1 7.15955 17.3229 1.31537
416 1 1 7.72496 0.605754 37.6241
818 1 1 10.9023 0.748854 2.87109
97 1 1 12.2338 1.11136 5.01338
820 1 1 10.0959 18.7384 2.06733
63 1 1 10.7166 18.7177 3.86537
71 1 1 11.8947 1.89115 2.34805
7632 1 1 12.2944 2.56677 3.37837
827 1 1 13.0675 1.50438 4.29609
431 1 1 14.0447 2.30679 0.696946
834 1 1 18.1361 1.76092 0.580665
949 1 1 14.5501 18.8192 2.60024
833 1 1 17.114 1.08677 2.08539
436 1 1 1.62978 18.61 2.52336
729 1 1 0.729775 2.83297 37.1374
852 1 1 1.05009 3.72699 2.18274
491 1 1 4.97936 1.81454 2.54674
7628 1 1 8.83544 18.2547 2.25933
14 1 1 6.84459 3.38559 0.895476
417 1 1 8.90436 0.227207 3.22916
15 1 1 8.92406 1.85853 1.15867
937 1 1 8.56636 1.13493 1.94393
426 1 1 11.9087 1.37758 3.81878
876 1 1 13.3341 2.28064 3.41348
838 1 1 12.3708 1.47489 36.9518
68 1 1 13.5891 3.77804 2.5348
517 1 1 16.9206 4.13785 1.11292
480 1 1 16.462 2.72909 2.59598
474 1 1 15.8737 3.48296 3.04765
917 1 1 0.0356864 1.50002 1.34461
881 1 1 17.0876 5.68498 1.71264
879 1 1 17.9085 3.52458 37.286
440 1 1 1.66606 5.52465 2.10973
933 1 1 4.34472 5.30595 36.677
89 1 1 4.65943 1.68026 1.45754
497 1 1 6.54761 5.72771 0.762683
935 1 1 4.33786 3.02784 0.63849
900 1 1 5.2884 2.95699 0.948817
98 1 1 4.98192 4.52142 3.21385
7 1 1 8.51562 2.44152 2.96268
494 1 1 8.1965 4.19652 0.680952
102 1 1 8.434 5.04176 1.80265
500 1 1 9.55837 3.03002 2.04332
897 1 1 9.64539 2.64149 0.477243
470 1 1 10.8584 3.15692 2.55691
505 1 1 12.9579 4.09468 0.0197558
508 1 1 10.5649 3.6648 0.00665334
869 1 1 11.7772 2.90489 2.5832
909 1 1 11.8205 4.78744 1.74219
1194 1 1 13.8266 5.78574 4.17275
39 1 1 14.9467 3.18904 0.78405
151 1 1 13.9839 0.872228 2.60993
515 1 1 15.5421 5.06665 3.56993
155 1 1 17.2654 3.01845 1.61647
1713 1 1 15.4709 2.32287 2.59999
115 1 1 16.8472 2.14562 1.84059
478 1 1 17.2832 2.3144 0.721986
1358 1 1 17.8556 3.79019 0.882986
519 1 1 18.0025 5.01053 2.34404
523 1 1 0.722611 4.71934 2.44728
82 1 1 0.0190453 4.11241 1.43551
88 1 1 1.30588 6.74563 1.45551
10 1 1 4.02707 6.18556 1.16319
1290 1 1 2.82385 5.39199 1.63733
899 1 1 0.0357354 3.42975 2.23229
53 1 1 5.38263 5.40763 2.83852
575 1 1 7.42538 5.2804 0.812978
179 1 1 7.57781 5.09636 3.66524
1337 1 1 5.94222 4.07635 1.41811
945 1 1 6.95266 4.64087 1.40517
1019 1 1 8.02653 6.11025 3.33211
134 1 1 11.5895 5.05811 2.84618
139 1 1 10.8842 3.75893 1.75299
908 1 1 11.1105 2.47157 1.94177
462 1 1 9.65191 6.01793 0.546417
473 1 1 11.6802 4.14888 2.57129
556 1 1 12.6518 3.09976 1.72022
1270 1 1 11.6923 3.98495 0.523105
554 1 1 16.8837 4.59278 2.13351
546 1 1 14.132 6.67167 2.99173
1316 1 1 16.9848 4.1632 4.31422
120 1 1 17.2392 5.71249 3.02868
7718 1 1 2.27503 6.35458 1.38718
446 1 1 5.28627 6.41643 0.664146
1282 1 1 2.67044 11.604 3.93203
92 1 1 4.50712 8.7224 0.220297
1327 1 1 7.80097 6.85228 1.86956
570 1 1 8.09757 6.0182 0.297219
7735 1 1 5.96048 5.64163 37.3398
171 1 1 5.92875 6.92055 2.96671
460 1 1 10.6195 4.29278 2.83957
91 1 1 8.63331 6.17489 2.2506
536 1 1 8.1936 10.0389 1.39843
1026 1 1 9.11721 7.0214 2.68012
1774 1 1 7.08196 5.46777 2.65047
7712 1 1 10.5247 7.35778 3.09151
7751 1 1 10.9976 9.71641 1.00525
588 1 1 12.644 4.65016 3.01122
146 1 1 13.0267 6.02532 2.43734
108 1 1 12.8959 7.37715 3.74482
113 1 1 14.72 4.95652 2.80053
1000 1 1 15.2026 7.12823 2.38204
1317 1 1 16.4384 6.10718 4.18892
196 1 1 15.6441 8.27568 2.1297
7721 1 1 18.5394 7.43129 3.48701
550 1 1 18.1432 6.11137 1.413
444 1 1 2.44162 6.88659 0.354927
483 1 1 18.1799 6.30154 2.46108
202 1 1 2.09006 10.3325 1.48896
1366 1 1 2.43341 10.1065 2.6528
485 1 1 3.26733 7.44252 0.936279
974 1 1 3.09816 7.91799 6.9506
445 1 1 5.30945 7.51785 1.76001
532 1 1 6.95111 5.99091 1.7624
607 1 1 6.26245 7.20837 1.52071
970 1 1 7.76087 8.74141 37.2561
215 1 1 6.29409 9.30397 1.40544
7817 1 1 9.08786 9.85178 1.79522
983 1 1 8.20833 8.9113 0.872553
628 1 1 10.6962 8.08528 4.13705
1062 1 1 13.6458 7.91137 5.20083
140 1 1 10.0137 9.3119 1.15686
596 1 1 14.9252 8.56002 4.76491
1033 1 1 15.2946 6.28652 3.79344
591 1 1 14.306 9.62537 3.45518
997 1 1 16.8238 7.21028 4.20316
7684 1 1 0.548576 7.93154 3.30834
191 1 1 0.0658904 8.7378 1.47058
239 1 1 1.19633 10.6963 1.64363
1329 1 1 0.447534 7.78796 1.34945
1041 1 1 3.62418 9.26349 3.88748
164 1 1 4.7012 8.92251 1.49099
637 1 1 2.92611 7.87627 37.6085
566 1 1 4.95681 10.701 2.16314
208 1 1 5.41803 9.10189 3.57801
932 1 1 5.2628 10.1302 4.09102
647 1 1 6.26646 9.29951 2.7948
611 1 1 4.19514 7.66523 1.45186
615 1 1 7.84029 11.3625 2.52051
180 1 1 8.57652 10.0962 2.65874
976 1 1 8.69106 10.8255 1.4314
579 1 1 8.16234 7.70652 2.72285
1020 1 1 11.1631 10.3672 3.53212
1023 1 1 12.5858 8.80178 1.52291
188 1 1 14.3238 9.30167 0.414408
632 1 1 12.6218 8.54345 3.32973
276 1 1 13.9058 10.6063 37.5996
958 1 1 15.4134 8.86221 3.27753
1802 1 1 18.5488 8.67101 2.77419
315 1 1 1.43958 10.3461 3.27611
357 1 1 3.38 10.8196 2.60362
998 1 1 2.28757 11.0317 4.63426
567 1 1 5.50076 11.9003 1.00032
7847 1 1 4.00019 11.7867 0.725656
687 1 1 6.03161 11.3457 1.92577
691 1 1 8.13228 12.2572 1.25789
574 1 1 5.85896 12.8074 1.71396
1061 1 1 7.01015 11.1252 3.6208
618 1 1 10.1506 10.1232 0.473647
651 1 1 8.34074 10.6424 3.73874
1063 1 1 11.1397 10.9417 0.362316
1105 1 1 11.2228 9.68395 2.75762
269 1 1 13.2533 10.2138 2.44997
1031 1 1 12.0921 9.77726 3.252
1076 1 1 13.29 8.52609 2.30283
636 1 1 16.0581 10.4314 1.83484
600 1 1 15.1987 11.0332 2.83393
240 1 1 15.9905 11.3604 1.11413
7838 1 1 16.8348 11.2149 2.37209
677 1 1 18.104 11.7874 1.40793
241 1 1 1.38669 9.89958 2.38645
7841 1 1 3.98497 9.9871 2.14581
1048 1 1 3.13553 10.358 0.422681
7928 1 1 3.0066 12.2539 1.54922
1050 1 1 6.1249 11.1718 3.0486
252 1 1 6.01626 13.0128 4.59568
7900 1 1 5.51587 13.9367 2.01924
339 1 1 6.24735 14.193 3.11785
622 1 1 9.96231 11.3979 2.55754
614 1 1 10.4855 10.2047 1.90527
668 1 1 13.1471 13.8973 3.37196
7903 1 1 11.9849 11.0281 1.23207
667 1 1 13.2207 11.4376 2.83341
1509 1 1 11.846 11.5289 3.01873
638 1 1 12.4653 12.3975 0.0655819
592 1 1 14.7682 12.4214 2.55731
273 1 1 13.2646 11.9438 1.51784
277 1 1 13.9299 13.481 1.60143
271 1 1 14.3088 12.5938 1.16448
1078 1 1 17.083 12.0687 0.583451
281 1 1 18.346 11.0502 0.760946
1035 1 1 18.0331 12.8784 1.58889
7840 1 1 16.0233 12.7635 1.86985
7995 1 1 18.1187 14.3324 2.97447
1154 1 1 0.700398 12.8211 0.673431
7482 1 1 1.93696 13.6102 2.53054
365 1 1 3.17417 13.1311 0.893388
685 1 1 1.98473 14.6405 2.02221
7921 1 1 1.43515 12.6451 1.62703
1081 1 1 4.72464 14.0118 2.67346
287 1 1 6.20403 14.9063 1.24468
696 1 1 6.55069 14.1225 2.14271
341 1 1 8.69811 14.0698 1.40894
627 1 1 8.5356 14.4751 2.76865
740 1 1 7.72793 13.6381 1.81066
1098 1 1 5.87673 12.1838 2.72112
254 1 1 10.4346 13.2989 2.57038
694 1 1 10.5397 12.9232 1.41465
1102 1 1 10.7549 11.6409 3.4605
1108 1 1 12.4117 13.0162 2.51268
7913 1 1 13.1488 15.1644 1.84796
1069 1 1 12.2143 12.0934 2.17433
674 1 1 15.5958 14.0156 1.09193
7925 1 1 16.7247 14.1681 0.670838
7834 1 1 14.4951 13.5171 0.765781
317 1 1 14.2045 13.2423 2.60863
234 1 1 15.7832 14.8948 3.88321
435 1 1 16.5717 13.9947 3.64437
7844 1 1 17.1973 15.5182 0.713491
325 1 1 2.22683 14.7358 3.12513
757 1 1 0.00807873 13.332 3.63623
1007 1 1 0.977156 13.8465 3.05538
751 1 1 2.63353 16.2171 0.00620318
1128 1 1 3.26069 15.0048 0.0485706
330 1 1 4.27292 15.8902 2.28338
648 1 1 2.13627 14.4797 37.2622
690 1 1 8.0351 16.9857 0.890918
342 1 1 6.93457 14.3636 0.586399
658 1 1 11.8233 14.8243 1.55887
1506 1 1 9.91972 15.9834 3.59519
742 1 1 10.5326 17.4414 0.835664
662 1 1 10.8637 15.0393 3.03749
1142 1 1 12.0904 15.8594 2.64577
743 1 1 9.51456 16.337 0.49376
298 1 1 12.126 17.0172 2.48533
272 1 1 12.0669 15.4547 4.00708
306 1 1 14.375 16.0252 0.81657
1146 1 1 15.9751 16.7293 3.36932
699 1 1 13.487 15.8755 2.51912
709 1 1 16.525 17.1665 1.66918
749 1 1 16.0017 14.9513 0.633013
713 1 1 16.3272 13.557 4.69736
351 1 1 17.5288 15.5613 1.86319
312 1 1 18.3412 16.7575 2.34042
7870 1 1 16.6101 15.4495 3.23122
318 1 1 2.05158 18.1737 0.654151
1199 1 1 0.0250491 15.8112 2.21509
404 1 1 2.4096 15.1886 1.09538
1529 1 1 2.05796 16.0582 2.14942
773 1 1 2.10565 16.0085 3.37796
771 1 1 3.97451 16.9759 1.8551
1531 1 1 7.03239 14.9379 3.62482
1134 1 1 4.98954 15.8645 2.99691
343 1 1 7.19136 0.116758 0.673041
375 1 1 10.1175 15.8761 37.0172
1176 1 1 10.7443 15.1137 1.37319
704 1 1 8.20253 17.6676 3.45887
698 1 1 9.79598 16.6693 1.46155
346 1 1 11.0206 16.9388 1.99738
64 1 1 13.2683 17.6528 2.58798
702 1 1 15.106 0.0883916 4.2696
1143 1 1 12.2493 0.21818 3.09171
1106 1 1 15.9264 1.52244 1.99586
394 1 1 16.9839 14.71 2.0192
1158 1 1 16.7648 16.0487 2.2449
433 1 1 15.355 17.9756 3.10673
728 1 1 16.2151 16.5977 4.40119
1149 1 1 18.2658 13.3581 4.4735
769 1 1 1.93762 16.2791 0.94602
682 1 1 1.1792 15.3523 3.78356
766 1 1 1.14471 18.3123 1.39201
1172 1 1 3.53506 17.9788 2.7395
7972 1 1 2.56273 0.80918 37.4682
1168 1 1 6.04874 0.584106 3.03063
777 1 1 5.90992 16.8582 2.66953
1130 1 1 7.42759 1.0774 3.45973
855 1 1 7.46106 17.0164 3.63882
1180 1 1 7.50771 18.668 4.03726
19 1 1 9.05209 17.4069 2.71246
11 1 1 9.91516 18.3674 3.11884
468 1 1 9.6769 17.088 3.57621
386 1 1 13.1272 0.415578 4.43924
783 1 1 10.5372 16.6194 2.88285
831 1 1 14.8013 0.529358 5.24275
867 1 1 14.453 17.9711 3.7649
790 1 1 12.8622 17.4762 3.58612
800 1 1 16.4147 0.831739 2.8268
796 1 1 0.364813 18.5461 4.05757
794 1 1 15.9248 18.6959 3.37743
1238 1 1 0.00801151 18.1936 3.15544
873 1 1 1.25498 16.4242 3.10858
43 1 1 2.92493 1.40552 5.40326
843 1 1 1.96437 18.5872 3.56921
443 1 1 0.472045 18.0212 2.21988
487 1 1 4.86972 17.478 3.33373
292 1 1 4.99441 0.842828 3.69415
772 1 1 5.50668 18.4555 3.40898
1181 1 1 8.04335 3.36681 2.41179
863 1 1 6.73711 2.4062 3.45351
861 1 1 6.26982 0.574172 4.18852
821 1 1 9.99191 18.0981 4.58057
872 1 1 11.9652 1.91805 5.57872
466 1 1 11.9381 0.321468 4.03379
828 1 1 13.7362 2.70127 7.01738
1188 1 1 13.4126 3.27373 4.9777
1341 1 1 12.8564 18.6971 5.26057
30 1 1 12.5677 1.42994 3.1392
1272 1 1 14.6294 1.01969 3.95387
1597 1 1 14.1917 1.69145 3.21465
799 1 1 16.0548 1.34868 3.63498
1634 1 1 17.1049 1.05961 4.21402
35 1 1 18.125 1.02571 3.85409
442 1 1 18.2084 2.76827 1.33002
764 1 1 1.44742 0.728345 3.43566
1201 1 1 2.72562 0.910665 3.59416
857 1 1 4.0043 1.26914 0.726663
849 1 1 2.99534 1.22395 1.60263
767 1 1 4.29279 3.71977 3.13349
455 1 1 5.98614 4.70822 0.510198
7220 1 1 5.6482 2.76827 4.16007
850 1 1 8.14577 0.429261 2.50519
854 1 1 8.58756 1.36879 3.18361
810 1 1 8.71154 2.00125 4.04618
1138 1 1 11.0541 2.17539 3.07095
410 1 1 8.30161 0.740011 4.04217
1178 1 1 7.81569 18.3598 2.87147
469 1 1 11.0772 0.550722 4.86113
1630 1 1 10.9268 1.58211 4.10334
1273 1 1 14.1124 4.11834 5.24859
32 1 1 14.8342 1.3918 1.86973
1197 1 1 18.6237 1.46277 4.87104
1315 1 1 17.4009 3.92645 2.72528
157 1 1 18.6165 2.21731 2.10223
841 1 1 1.01745 3.46346 0.946898
521 1 1 3.38052 3.46149 1.42789
848 1 1 3.05718 5.07135 3.2249
1359 1 1 1.80672 3.48914 5.60661
87 1 1 1.7876 4.17484 0.957765
846 1 1 3.82405 1.91351 4.93961
887 1 1 2.35722 4.98698 4.13228
1256 1 1 6.32276 3.56326 4.65882
1210 1 1 4.74653 2.76033 1.91065
894 1 1 4.06523 4.52064 4.04526
860 1 1 5.92023 2.03942 4.93358
1255 1 1 6.78898 3.87968 2.12123
814 1 1 8.05519 4.55249 2.96915
1345 1 1 9.93428 2.40438 3.60928
1340 1 1 6.25391 3.46019 3.35589
1377 1 1 10.5376 2.64096 4.38306
420 1 1 12.6436 3.44661 2.79089
912 1 1 14.382 4.5983 4.16311
471 1 1 14.0049 5.00846 1.69691
514 1 1 16.0716 2.88865 1.63265
156 1 1 15.2964 4.09357 4.0986
910 1 1 15.0446 2.11526 3.94084
1669 1 1 14.8686 3.2419 4.49684
801 1 1 17.86 4.65603 3.69202
1675 1 1 17.2744 3.23998 3.74243
448 1 1 1.77496 0.503723 1.81865
918 1 1 0.352401 4.4321 6.76304
1200 1 1 0.0999513 2.95395 4.79451
525 1 1 17.5634 4.52997 5.19333
1797 1 1 2.21628 4.64174 6.13624
1242 1 1 2.50676 4.13455 5.24718
1605 1 1 5.05115 3.46718 3.67824
454 1 1 3.62764 4.35136 1.90029
1733 1 1 3.1374 6.33883 4.75217
1254 1 1 6.05047 5.16425 1.57993
1295 1 1 9.1703 3.89337 2.49183
1384 1 1 7.66365 3.86973 4.54107
537 1 1 9.17612 4.61994 1.35629
939 1 1 9.3114 4.26237 3.88457
7779 1 1 11.3908 3.57504 3.54421
544 1 1 15.6137 7.21177 4.27897
870 1 1 14.449 6.66183 4.20697
509 1 1 12.7349 5.96123 4.48146
34 1 1 13.3582 2.64152 2.35797
558 1 1 14.4139 3.791 3.44157
960 1 1 17.663 6.5958 3.31031
520 1 1 17.9458 3.69491 1.88935
488 1 1 1.81445 2.73441 1.83396
880 1 1 0.505463 7.41129 4.15247
522 1 1 0.617057 6.86101 3.15084
922 1 1 1.24456 5.5935 2.9743
1285 1 1 1.87082 6.9507 2.97968
999 1 1 0.996928 7.42247 2.2679
486 1 1 1.4198 6.65285 3.8485
489 1 1 2.65647 6.14598 3.70871
886 1 1 3.28033 6.70608 1.69941
966 1 1 2.47852 6.05448 2.51461
924 1 1 2.46644 5.49969 5.00261
936 1 1 4.33607 7.89204 3.72815
99 1 1 5.70031 6.25968 1.83118
1780 1 1 5.57241 6.49774 3.88588
1739 1 1 8.88315 6.10322 4.00378
1331 1 1 8.16301 6.77679 4.07886
971 1 1 9.51342 5.32596 3.56823
938 1 1 10.3768 5.41293 3.02497
1338 1 1 10.3083 3.46082 3.42312
623 1 1 10.7399 4.89166 1.36881
944 1 1 13.0847 5.59169 3.28276
551 1 1 11.9184 5.90778 2.05997
152 1 1 12.6774 5.44423 1.35998
7754 1 1 13.6613 4.60623 3.26074
512 1 1 14.6341 7.17053 5.86036
878 1 1 14.7924 5.62669 4.41826
112 1 1 16.6524 4.31581 3.30102
920 1 1 16.1537 5.70085 6.61435
1396 1 1 18.4913 6.93883 0.952463
1793 1 1 16.7658 5.3287 5.19169
1443 1 1 17.0013 5.22416 3.98618
603 1 1 0.515325 6.36319 4.48637
1365 1 1 2.28405 9.15353 1.59754
531 1 1 4.34572 9.88579 4.58395
1369 1 1 4.80925 7.54789 0.286144
1409 1 1 2.50861 7.38338 1.99127
209 1 1 4.30127 5.3002 2.36047
90 1 1 4.99245 7.37474 2.80151
1045 1 1 3.04409 8.2798 1.62458
649 1 1 8.76966 8.5156 4.45022
7850 1 1 7.62936 8.14365 1.79324
492 1 1 7.63725 7.79753 5.6455
1373 1 1 6.33137 5.78871 3.2634
530 1 1 7.05495 6.93878 2.63742
975 1 1 6.87947 7.04864 5.59991
584 1 1 10.2085 11.2195 5.36422
1421 1 1 8.0413 10.2031 5.35235
978 1 1 9.54485 4.89735 2.36773
555 1 1 10.2677 6.91529 4.12108
586 1 1 10.0092 9.02972 4.35212
587 1 1 9.06029 9.60633 4.73025
232 1 1 10.297 9.64363 3.46197
1036 1 1 13.0816 6.93555 2.8507
979 1 1 14.1877 5.71556 3.14375
193 1 1 15.7828 7.26045 3.20607
956 1 1 14.2027 8.57479 3.06239
1314 1 1 16.7187 7.68215 2.10899
1071 1 1 18.4492 7.96241 4.38455
563 1 1 16.7927 9.07759 3.9189
1005 1 1 0.175792 10.5649 4.06865
1439 1 1 1.54449 10.1994 4.47994
1053 1 1 1.92717 9.26289 2.94132
1051 1 1 6.71701 9.14562 4.69732
572 1 1 5.20891 9.20334 4.84152
1420 1 1 6.5723 10.1932 1.75258
1015 1 1 6.84179 11.489 5.23428
1017 1 1 7.71134 8.04637 3.84314
136 1 1 11.4163 10.1425 4.53907
1021 1 1 7.51553 10.9133 4.51742
985 1 1 11.1434 11.3186 4.87728
539 1 1 8.44818 8.91354 3.56274
1066 1 1 11.7196 7.6395 3.29257
993 1 1 13.3637 8.5011 4.18894
640 1 1 13.2461 7.36306 37.2265
1434 1 1 14.4133 9.66601 6.03852
1073 1 1 14.1977 10.5685 3.15552
1038 1 1 17.8772 7.73328 2.64901
1037 1 1 14.3787 7.88903 4.06606
1012 1 1 3.89777 11.4195 4.01195
597 1 1 17.8549 11.0448 4.45707
1444 1 1 1.90611 12.7028 3.24376
1405 1 1 2.56345 10.1851 3.80208
1085 1 1 4.67844 10.2231 3.03358
1415 1 1 4.705 10.9968 4.54127
653 1 1 6.85977 10.8812 2.36581
1334 1 1 6.19966 7.99656 3.51526
650 1 1 5.46358 12.157 5.21644
606 1 1 10.1461 8.67153 2.81452
659 1 1 6.89016 12.2789 4.31722
1462 1 1 9.28038 10.8592 4.89592
707 1 1 8.71916 11.6841 4.20967
916 1 1 13.774 11.4102 3.91399
1065 1 1 13.1494 9.45615 3.81795
1547 1 1 13.5448 11.5149 0.576561
1429 1 1 14.1295 9.57596 2.42814
311 1 1 17.0737 10.9419 3.52476
1437 1 1 15.8855 11.908 2.95401
1034 1 1 18.106 10.5708 3.47617
197 1 1 1.03295 9.25987 1.33966
7843 1 1 3.27244 12.1465 2.93266
1368 1 1 0.738171 11.9264 3.27842
242 1 1 0.417043 12.7724 1.67374
968 1 1 1.27597 11.1692 2.78797
1406 1 1 2.42804 12.8744 4.30475
604 1 1 5.34635 12.0621 3.57887
246 1 1 3.49626 13.2006 3.78715
1008 1 1 4.66778 13.294 3.5671
612 1 1 7.29829 15.8742 4.42623
661 1 1 8.08371 12.1726 3.38132
225 1 1 10.6496 12.9019 3.45965
7862 1 1 9.70246 9.93362 2.60578
621 1 1 9.23961 12.8646 3.71339
1465 1 1 9.85123 12.1318 4.37495
663 1 1 12.4524 11.9317 4.33256
630 1 1 12.7721 12.3846 3.20582
1070 1 1 13.5463 12.9614 4.00602
1074 1 1 13.4512 12.5477 2.38802
669 1 1 15.0893 11.9372 4.54852
1474 1 1 16.4784 13.1061 2.80922
1001 1 1 17.3728 12.1134 2.15833
270 1 1 18.3498 12.3174 2.6482
243 1 1 3.23314 14.2478 2.32348
286 1 1 5.28638 14.8303 4.72588
678 1 1 16.9958 13.0823 3.97471
686 1 1 3.87757 14.2342 3.52944
1453 1 1 4.02324 14.9165 2.59358
1136 1 1 4.01959 13.8182 1.76214
1446 1 1 4.10272 14.6504 4.41958
605 1 1 6.66622 16.3641 3.28702
1047 1 1 7.1388 13.9603 4.04246
1090 1 1 8.85605 15.8372 3.21211
7823 1 1 8.07304 12.0488 4.82281
1104 1 1 8.13763 13.2895 3.94522
1533 1 1 10.4242 14.542 2.06947
1537 1 1 9.9557 14.5949 4.27584
664 1 1 8.93135 14.2724 3.69416
1114 1 1 12.0941 15.9205 1.12271
711 1 1 10.4602 15.4954 4.72106
1501 1 1 12.3979 14.1484 4.50083
1505 1 1 11.0282 14.5322 4.54165
602 1 1 12.3537 14.8866 3.13964
672 1 1 14.1163 14.1854 3.59302
1151 1 1 13.8944 14.2676 2.58697
1472 1 1 13.0937 15.9243 4.29826
715 1 1 14.4506 12.3775 3.5689
1115 1 1 13.808 13.404 6.0693
590 1 1 15.7939 14.47 2.50851
1042 1 1 15.7203 12.7671 3.69886
720 1 1 17.6815 13.067 2.59189
683 1 1 16.6808 13.63 1.86253
1163 1 1 2.64832 13.3851 3.18166
1046 1 1 18.3428 14.9477 2.07141
332 1 1 5.22459 15.0097 2.43927
1131 1 1 4.03413 15.4813 3.75038
411 1 1 4.70238 14.6055 1.5237
1530 1 1 5.01931 14.8513 3.57172
1170 1 1 8.25262 15.4157 2.4061
737 1 1 9.09103 15.1928 1.82067
260 1 1 8.42464 16.6911 3.71019
1127 1 1 8.07401 15.2566 5.23994
736 1 1 9.74246 16.1285 2.61979
1139 1 1 11.5489 15.662 5.10331
1107 1 1 11.3264 16.1816 3.71097
1543 1 1 13.412 16.9664 4.38908
701 1 1 12.4761 16.9126 1.40193
310 1 1 15.2238 14.0567 3.39724
712 1 1 14.1243 15.7371 4.66293
1153 1 1 14.0835 15.3751 1.7921
1514 1 1 1.98354 14.5593 4.26872
759 1 1 16.8174 15.2648 4.27052
724 1 1 0.149578 14.9401 3.05553
284 1 1 0.779237 15.1609 5.18596
1167 1 1 1.98591 15.5781 4.60604
323 1 1 5.21527 16.7893 4.10977
282 1 1 1.05273 15.2614 2.75698
1133 1 1 4.51697 16.0055 4.49645
734 1 1 6.81936 17.9216 4.30755
778 1 1 6.52753 16.9456 6.33243
535 1 1 6.25726 18.4571 5.26584
7975 1 1 7.31868 13.8482 2.82912
1185 1 1 8.51341 16.6356 5.60805
1541 1 1 8.72059 15.958 1.18209
823 1 1 11.0823 17.7754 4.85105
671 1 1 9.98453 17.4013 5.67902
1186 1 1 10.9176 17.3633 3.6329
1183 1 1 14.6786 14.8048 4.21797
1187 1 1 11.8938 18.1138 3.96241
1191 1 1 15.0102 16.4567 4.47159
748 1 1 17.5807 16.2488 5.75971
716 1 1 15.4768 15.7152 2.79967
1150 1 1 15.5593 15.4839 4.86504
1189 1 1 16.4991 17.8265 4.16704
280 1 1 0.189622 16.2082 3.21199
727 1 1 0.309186 15.3509 4.1005
837 1 1 17.4228 17.7728 2.19233
1161 1 1 3.15326 15.3859 5.54128
726 1 1 5.05841 17.4926 1.86989
693 1 1 4.87495 16.765 5.03238
1215 1 1 5.08 18.0608 5.05147
1217 1 1 4.02775 16.7982 3.81387
1213 1 1 8.93805 18.3261 4.45265
1140 1 1 6.56677 18.5437 3.54672
423 1 1 9.99197 16.2569 5.9305
428 1 1 10.4029 0.019201 5.432
822 1 1 12.7414 18.7974 6.70886
1141 1 1 9.17006 0.7611 5.26042
432 1 1 15.4696 17.3818 4.08639
463 1 1 14.8755 17.6547 5.08641
1195 1 1 18.1865 17.9933 3.9783
467 1 1 13.9684 2.28618 4.65565
1590 1 1 13.4039 0.653973 3.51318
787 1 1 15.0937 1.24481 3.00849
1160 1 1 17.5228 0.461936 3.021
2037 1 1 17.7494 15.3782 2.79297
1239 1 1 1.54053 18.3793 4.44021