ITEM: TIMESTEP
100
ITEM: NUMBER OF ATOMS
8000
ITEM: BOX BOUNDS pp pp pp
0.0000000000000000e+00 1.8820720577620570e+01
0.0000000000000000e+00 1.8820720577620570e+01
0.0000000000000000e+00 3.7641441155241139e+01
ITEM: ATOMS id mass type x y z
1 1 1 0.270908 0.00830529 37.5913
2 1 1 0.261471 1.17044 37.2018
3 1 1 1.17215 18.2765 1.22884
4 1 1 18.7041 1.38425 0.721414
5 1 1 1.20707 18.2381 37.1361
6 1 1 3.34211 1.41012 0.291895
7 1 1 2.62572 0.380461 0.652028
8 1 1 1.20324 0.861332 0.620139
9 1 1 3.77222 0.415344 0.22033
12 1 1 3.37085 0.811655 1.46213
10 1 1 4.40292 1.04419 0.613359
11 1 1 4.71832 -0.0100921 1.01528
13 1 1 5.78212 18.7887 0.204724
16 1 1 5.43752 0.664221 1.03864
14 1 1 6.38356 1.15198 0.730098
15 1 1 6.63677 18.253 0.63858
17 1 1 7.73827 18.4607 37.3767
18 1 1 8.71463 0.669656 0.16824
19 1 1 8.47151 18.6412 0.932604
20 1 1 7.63803 0.864547 0.382819
21 1 1 9.22883 18.7013 0.183789
24 1 1 9.72427 0.344785 0.943202
22 1 1 10.3218 1.01914 0.158691
23 1 1 10.8484 0.146867 0.791575
25 1 1 11.3608 0.00915147 37.5455
28 1 1 11.4415 1.18671 0.599192
26 1 1 12.1611 0.592619 0.180061
27 1 1 12.2764 0.0252895 1.07993
29 1 1 12.7789 18.5148 0.213371
30 1 1 13.6284 1.36747 0.431782
31 1 1 14.1337 0.338235 0.573745
32 1 1 12.9993 0.710352 0.972896
33 1 1 15.338 0.558689 37.5761
36 1 1 14.6772 1.2333 0.746671
34 1 1 15.9223 1.56252 37.3532
35 1 1 16.9138 0.395306 1.31024
37 1 1 16.602 0.42832 0.245821
40 1 1 16.9409 1.34977 0.746132
38 1 1 17.6823 0.966929 0.0604142
39 1 1 17.5637 18.2051 1.39662
41 1 1 18.7685 2.1694 37.4679
42 1 1 0.890389 3.03515 0.32547
43 1 1 0.900569 1.59293 1.31219
44 1 1 18.6278 2.93083 0.775391
45 1 1 1.6976 2.13908 0.406073
46 1 1 1.91991 3.04985 37.3693
47 1 1 3.39003 2.06163 1.58269
48 1 1 2.48552 2.60803 1.14982
49 1 1 4.27337 2.13672 37.443
52 1 1 3.2171 2.54037 0.262478
50 1 1 4.36278 2.79954 0.839818
51 1 1 5.25613 1.66751 0.733596
53 1 1 5.56697 2.11817 37.4995
56 1 1 5.52051 3.0086 0.862219
54 1 1 6.33974 2.884 0.171295
55 1 1 6.29908 2.25363 1.0883
57 1 1 7.30546 1.56123 37.4056
58 1 1 8.61901 2.90318 0.118908
59 1 1 9.02048 1.82624 1.08872
60 1 1 7.25629 2.18201 0.808077
61 1 1 9.61643 1.68053 37.5853
64 1 1 10.1347 1.9963 0.742923
62 1 1 10.9048 2.8821 37.3648
63 1 1 10.5218 1.13852 1.16505
65 1 1 11.3046 1.92684 37.4321
68 1 1 11.8272 2.76902 0.555946
66 1 1 12.4839 2.76212 37.2842
67 1 1 12.4104 1.77938 0.194847
69 1 1 13.4509 2.33512 37.0399
70 1 1 14.1577 3.09491 37.3616
71 1 1 14.0404 2.35446 0.39483
72 1 1 13.1707 3.23749 0.901885
73 1 1 14.9924 2.0517 37.4612
76 1 1 14.9064 3.0782 1.32854
74 1 1 16.326 3.52322 0.183386
75 1 1 15.4014 2.08846 0.720083
77 1 1 17.3683 1.99056 37.0976
80 1 1 16.5382 2.40957 0.153542
78 1 1 17.3197 3.34331 0.502225
79 1 1 17.8679 1.96601 0.688722
81 1 1 0.177146 3.85358 0.118295
83 1 1 1.5673 4.34413 0.560522
85 1 1 2.22461 4.02264 37.0228
87 1 1 2.58674 4.27831 0.332723
89 1 1 3.88056 3.51459 37.4248
91 1 1 4.77963 3.95398 0.625626
93 1 1 5.33362 3.45651 37.4226
95 1 1 6.88137 4.23934 1.13407
97 1 1 7.54783 3.01765 0.0812568
99 1 1 7.84641 3.78084 1.4336
101 1 1 9.78063 3.67105 0.26161
103 1 1 10.6956 3.47731 0.711506
105 1 1 11.2791 4.11247 0.00604274
107 1 1 12.4675 3.9177 0.765994
109 1 1 13.5874 3.94245 0.126457
111 1 1 14.2365 3.93717 1.06704
113 1 1 14.9322 3.77875 0.113611
115 1 1 16.4652 2.98948 1.21002
117 1 1 17.2589 3.97412 36.9362
119 1 1 18.4233 4.19062 0.904843
82 1 1 0.408962 4.90526 0.469255
84 1 1 18.1335 5.43007 1.16129
121 1 1 0.660361 5.81938 0.369302
123 1 1 1.50798 6.4748 1.00599
86 1 1 2.457 5.00521 37.4149
88 1 1 1.84238 5.46657 0.941213
125 1 1 1.66551 5.77615 37.6088
127 1 1 2.87961 5.53734 1.09715
92 1 1 4.32361 4.72779 1.07753
129 1 1 3.78631 5.59069 37.5583
90 1 1 4.66579 4.32563 37.2707
96 1 1 5.5375 5.22181 1.48075
131 1 1 4.72753 5.81331 1.17071
133 1 1 5.40196 5.59239 0.155535
94 1 1 6.61813 4.74861 37.5901
135 1 1 6.96438 5.87045 1.16961
98 1 1 8.7657 4.15529 0.323645
100 1 1 7.68106 4.47571 0.251132
137 1 1 7.86289 5.49284 37.3823
139 1 1 8.96893 5.35933 0.55868
104 1 1 9.99157 4.52433 0.897476
141 1 1 9.14099 5.53933 37.2394
102 1 1 10.7083 5.12155 0.397037
108 1 1 10.9874 4.42311 1.27267
143 1 1 10.1282 5.98064 0.637349
145 1 1 11.2662 5.32435 37.1964
106 1 1 12.1242 4.95267 37.6422
147 1 1 12.3351 5.57799 0.80994
110 1 1 13.8103 4.94904 37.5138
112 1 1 13.1768 4.82102 0.906871
149 1 1 13.186 5.8075 0.0164046
151 1 1 14.1818 5.23479 1.44367
116 1 1 14.9494 5.20275 0.509961
153 1 1 15.1767 5.64261 37.0711
114 1 1 15.6813 4.4296 0.128774
120 1 1 17.2168 4.31899 0.348563
155 1 1 15.6763 5.03768 1.92232
157 1 1 16.4954 5.31556 0.504503
118 1 1 18.349 5.33089 37.5629
159 1 1 17.4527 5.90926 0.484581
122 1 1 1.25335 6.60973 37.2534
124 1 1 18.1263 7.13903 1.27238
126 1 1 2.81567 6.01548 0.100857
128 1 1 2.27296 6.84973 0.259377
132 1 1 3.48989 6.32104 0.85193
130 1 1 5.25364 6.9922 0.025775
136 1 1 5.59268 6.30681 1.56008
134 1 1 7.2755 6.89633 0.828733
138 1 1 8.41246 6.35785 37.266
140 1 1 8.29715 6.49944 1.38281
144 1 1 9.00725 6.40024 0.59691
142 1 1 10.0919 6.53017 37.2926
148 1 1 11.2314 6.92029 0.0704863
146 1 1 12.2592 6.73944 0.084921
150 1 1 13.392 6.71815 37.193
152 1 1 13.2682 6.52972 0.663245
156 1 1 15.3583 5.83036 1.2188
154 1 1 16.0602 6.95838 0.347916
160 1 1 16.4195 6.27395 1.03255
158 1 1 18.1585 6.65782 37.6366
161 1 1 0.451215 6.91886 0.466871
162 1 1 0.630151 8.49509 0.0424565
163 1 1 1.3029 7.49884 0.848445
164 1 1 0.157404 8.54177 1.06447
165 1 1 1.732 7.7232 37.4722
166 1 1 2.60542 8.8079 37.3636
167 1 1 3.23962 7.35389 0.63959
168 1 1 2.27505 7.99284 0.943608
169 1 1 3.94352 7.11143 37.4719
172 1 1 3.41333 8.47619 0.577011
170 1 1 5.08599 8.24191 37.5034
171 1 1 4.36283 6.80372 1.06421
173 1 1 6.4025 7.01039 0.092103
176 1 1 4.88547 9.1309 0.778263
174 1 1 6.87621 8.69119 36.8738
175 1 1 6.71227 8.04323 1.65735
177 1 1 8.39292 7.17101 0.487538
178 1 1 8.69746 8.17133 37.5695
179 1 1 8.90479 7.81027 1.34053
180 1 1 7.55546 7.89288 0.636724
181 1 1 9.13867 7.16303 37.5238
184 1 1 9.86155 7.94323 1.24884
182 1 1 10.874 7.90638 0.271093
183 1 1 10.029 7.28727 0.536687
185 1 1 11.8205 8.0577 37.047
188 1 1 11.2932 8.39782 1.67631
186 1 1 11.9704 8.37263 0.556755
187 1 1 12.2571 7.45977 1.00437
189 1 1 12.885 7.85744 0.12281
190 1 1 13.7744 8.59671 0.477345
191 1 1 13.9887 7.35278 0.513569
192 1 1 12.8131 9.02311 0.564821
193 1 1 15.1721 7.47877 0.670209
196 1 1 15.1601 8.81958 0.723457
194 1 1 16.1884 8.45803 0.283653
195 1 1 16.4029 7.36149 1.29006
197 1 1 17.1362 6.86822 0.560027
200 1 1 16.7376 8.82399 1.13047
198 1 1 17.9829 8.67963 37.6223
199 1 1 18.6659 7.77807 0.331219
201 1 1 0.0251794 9.26086 37.3749
203 1 1 1.36801 9.01634 1.04792
205 1 1 2.19864 10.023 0.629402
207 1 1 3.04747 9.33374 0.909874
209 1 1 3.08162 9.8186 37.5382
211 1 1 4.51643 10.1826 0.979363
213 1 1 5.22147 9.65493 37.0509
215 1 1 6.74553 8.63165 0.862337
217 1 1 7.5281 8.79643 0.00676968
219 1 1 8.52051 8.88688 0.746696
221 1 1 9.54595 8.89738 0.465689
223 1 1 10.4757 8.65966 0.774088
225 1 1 11.1903 9.45657 0.296867
227 1 1 11.8525 9.53721 1.29132
229 1 1 13.2311 9.75963 37.5883
231 1 1 14.3191 9.30278 0.850443
233 1 1 15.4464 9.36862 36.9679
235 1 1 16.1939 9.56499 0.685806
237 1 1 17.0526 9.31587 37.5765
239 1 1 18.2799 9.60721 0.665482
202 1 1 1.04302 10.014 0.280926
204 1 1 0.122644 10.3748 0.574454
241 1 1 18.5001 11.462 37.6296
243 1 1 1.26592 11.2114 0.670639
206 1 1 2.80269 10.8839 0.110376
208 1 1 1.47042 10.1001 1.56586
245 1 1 1.88809 11.497 37.3738
247 1 1 3.07933 11.83 1.49453
212 1 1 3.3452 10.3651 1.16338
249 1 1 3.65516 11.4901 0.433149
210 1 1 5.36737 10.8084 0.128382
216 1 1 5.88759 11.2055 1.21112
251 1 1 4.80706 11.2814 0.87102
253 1 1 5.45887 12.0491 0.648669
214 1 1 6.63733 9.55023 37.5939
255 1 1 5.76517 12.1198 1.72636
218 1 1 8.58431 10.237 0.475176
220 1 1 7.43504 10.0574 0.607979
257 1 1 7.57975 11.755 0.118178
259 1 1 8.39581 12.0326 0.677181
224 1 1 9.22965 10.7283 1.23431
261 1 1 9.17367 11.3262 0.393776
222 1 1 10.0728 9.82043 0.343889
228 1 1 10.9571 10.2519 0.902482
263 1 1 10.6603 11.5003 1.02173
265 1 1 11.7058 11.1946 0.57596
226 1 1 12.3197 10.3343 0.298118
267 1 1 12.3968 10.8875 1.33307
230 1 1 14.1555 10.4498 0.398595
232 1 1 12.7395 10.0298 1.0987
269 1 1 12.9752 11.1578 0.207909
271 1 1 14.5792 11.2604 0.854768
236 1 1 15.1944 9.93821 0.528805
273 1 1 15.0619 11.0031 37.4208
234 1 1 15.9056 10.226 37.4988
240 1 1 17.1652 10.1037 0.841852
275 1 1 15.73 10.9889 1.01847
277 1 1 16.6431 11.3696 0.10831
238 1 1 17.8339 10.1026 37.406
279 1 1 18.0568 10.797 1.04655
242 1 1 0.770871 12.1666 37.5513
244 1 1 18.1051 12.1443 1.08182
246 1 1 2.7346 11.9621 0.240688
248 1 1 2.00297 12.0591 1.0466
252 1 1 3.44588 12.8623 1.34655
250 1 1 4.63146 12.5955 0.342567
256 1 1 5.1406 12.8706 1.25951
254 1 1 6.40498 12.1051 37.2929
258 1 1 8.48231 11.9677 37.1724
260 1 1 6.8722 12.058 1.14403
264 1 1 9.96501 12.9441 1.62168
262 1 1 10.6195 11.4768 37.5816
268 1 1 11.804 11.7319 1.6144
266 1 1 12.7022 11.8586 36.624
270 1 1 14.638 11.9917 0.192274
272 1 1 12.7705 11.8242 0.915664
276 1 1 15.3359 12.0207 1.02606
274 1 1 16.0118 12.6664 0.111175
280 1 1 17.1702 12.3741 1.21168
278 1 1 17.6129 12.2709 0.110007
281 1 1 18.2621 13.0229 0.127902
282 1 1 1.68072 14.368 0.796574
283 1 1 0.532496 13.1506 0.360882
284 1 1 0.481808 14.004 1.22367
285 1 1 1.91844 12.6459 0.223319
286 1 1 2.68612 14.6515 0.398377
287 1 1 2.27963 13.424 0.920814
288 1 1 1.31456 14.0016 1.68958
289 1 1 3.63605 13.1419 0.37409
292 1 1 3.75658 14.377 1.14219
290 1 1 4.56048 13.722 37.4079
291 1 1 4.40059 13.6295 0.934527
293 1 1 5.41186 13.3027 0.146043
296 1 1 5.59632 13.7889 1.18243
294 1 1 6.22292 13.8035 0.289501
295 1 1 6.26197 12.8191 0.690574
297 1 1 8.20887 12.8477 0.116195
298 1 1 8.57173 14.3618 0.428029
299 1 1 8.58519 13.4412 0.922352
300 1 1 7.35533 14.2177 0.559614
301 1 1 9.14899 13.4725 0.041248
304 1 1 9.43357 14.9357 0.854377
302 1 1 10.493 13.48 0.501326
303 1 1 10.9681 12.7834 1.40097
305 1 1 11.5067 13.2099 0.0906462
308 1 1 11.3707 13.6905 1.14832
306 1 1 11.8463 14.2179 0.392703
307 1 1 12.1839 12.8408 1.27761
309 1 1 12.522 13.0405 0.320354
310 1 1 14.5141 14.0973 0.0440257
311 1 1 13.4655 12.5377 0.539271
312 1 1 13.6571 14.2427 0.7657
313 1 1 14.7492 13.0087 37.5144
316 1 1 15.3353 13.8107 0.946381
314 1 1 15.6932 13.6792 37.588
315 1 1 16.3853 13.5843 0.877278
317 1 1 16.9505 13.1824 37.301
320 1 1 17.2095 14.8191 1.71036
318 1 1 17.7129 14.3275 0.145337
319 1 1 18.4831 13.4746 1.05579
321 1 1 0.351555 14.8464 0.750743
323 1 1 1.21877 15.3919 0.939323
325 1 1 1.6166 15.1731 37.4383
327 1 1 3.40263 15.2481 0.948283
329 1 1 4.1837 14.5074 0.17233
331 1 1 4.6431 15.3037 0.643805
333 1 1 5.39996 14.3805 -0.0101136
335 1 1 6.39354 14.7136 1.26795
337 1 1 7.17785 15.5355 37.0479
339 1 1 7.93006 15.2713 0.576024
341 1 1 9.64615 15.1342 37.4678
343 1 1 10.906 14.9262 0.859019
345 1 1 11.4775 15.0325 37.2637
347 1 1 12.5948 15.521 0.150931
349 1 1 13.245 14.626 37.6039
351 1 1 13.6304 15.5316 1.21987
353 1 1 15.2121 14.7521 37.5382
355 1 1 15.9669 14.6813 1.10278
357 1 1 16.2592 14.8389 37.5254
359 1 1 18.1739 14.4399 1.16348
322 1 1 0.767513 16.0023 0.0666756
324 1 1 0.250772 16.193 0.925165
361 1 1 0.155113 16.8576 0.0846775
363 1 1 1.33007 16.6226 1.27087
326 1 1 2.81663 16.1995 37.6199
328 1 1 2.20258 15.6924 0.92253
365 1 1 1.84999 16.5266 0.304636
367 1 1 3.03153 17.0923 0.665701
332 1 1 3.78813 16.3326 0.408891
369 1 1 3.75517 17.165 37.1404
330 1 1 4.6554 16.2448 37.4903
336 1 1 5.07648 16.2247 1.03394
371 1 1 4.2919 17.1683 0.516127
373 1 1 4.91758 17.3485 37.2162
334 1 1 6.10346 16.0817 0.606454
375 1 1 6.51053 16.9309 1.51897
338 1 1 8.22685 16.0108 37.3282
340 1 1 7.19027 16.4279 0.610022
377 1 1 7.79801 17.339 37.5707
379 1 1 8.30758 16.7662 0.788464
344 1 1 9.28275 15.9459 0.268627
381 1 1 9.42326 16.8946 0.118745
342 1 1 10.3282 16.1008 0.156721
348 1 1 11.242 16.2047 1.12435
383 1 1 10.462 16.9679 1.01936
385 1 1 10.858 16.945 37.5191
346 1 1 11.9873 16.3111 37.4033
387 1 1 11.9714 16.9064 0.717563
350 1 1 13.7501 15.8758 37.583
352 1 1 12.9935 16.347 0.700757
389 1 1 13.1896 17.3024 37.4521
391 1 1 14.0506 17.1056 0.62191
356 1 1 14.7765 15.5758 0.186779
393 1 1 15.1223 16.5973 37.2758
354 1 1 15.7579 16.1283 0.558636
360 1 1 16.7617 15.3649 0.982409
395 1 1 15.7242 17.2123 0.382704
397 1 1 17.1941 16.6382 37.2268
358 1 1 18.3458 15.4312 0.725314
399 1 1 17.9615 17.3541 0.939527
362 1 1 1.17316 17.0538 37.294
364 1 1 0.163907 17.8382 0.495753
366 1 1 3.5225 18.1665 0.0181224
368 1 1 1.70657 17.7155 0.518632
372 1 1 3.93634 18.1158 1.17136
370 1 1 4.44688 18.3217 0.115057
376 1 1 5.39438 17.8204 0.680922
374 1 1 6.74734 17.5649 37.2419
378 1 1 8.58918 17.8658 37.4078
380 1 1 7.47458 17.8356 1.24867
384 1 1 8.98277 17.7155 0.603631
382 1 1 10.1811 18.3006 0.0287698
388 1 1 11.3499 17.979 0.585806
386 1 1 12.1271 17.8534 37.4871
390 1 1 14.7648 17.8121 37.1439
392 1 1 12.9175 17.6663 0.880763
396 1 1 14.7532 18.1816 0.7789
394 1 1 15.851 18.5918 0.581503
400 1 1 16.9592 17.6805 0.523213
398 1 1 17.8928 18.4398 37.4511
401 1 1 0.134065 18.178 1.99007
402 1 1 1.51111 0.549963 2.05088
403 1 1 1.33646 18.5888 2.94879
404 1 1 0.286041 0.508139 2.19834
405 1 1 2.00489 18.7324 1.42906
406 1 1 2.28772 1.05183 1.53585
407 1 1 3.07301 0.0250677 3.02062
408 1 1 2.16511 0.906449 2.90161
409 1 1 3.44658 18.6174 1.92173
412 1 1 3.48949 0.927788 3.03625
410 1 1 4.90682 0.857296 2.06273
411 1 1 4.61778 18.7725 3.07679
413 1 1 5.74948 0.0427335 1.88955
416 1 1 5.42972 1.02908 3.13098
414 1 1 6.76365 1.24496 1.76746
415 1 1 6.98045 0.670294 2.73706
417 1 1 6.94287 0.0569294 1.8776
418 1 1 8.39662 0.597606 1.50958
419 1 1 8.68239 18.5651 2.69717
420 1 1 7.52205 1.32851 3.3998
421 1 1 9.27016 18.7303 1.85908
424 1 1 9.06161 0.745809 2.64555
422 1 1 10.4376 0.141013 1.90853
423 1 1 9.81719 0.100685 2.8511
425 1 1 11.101 18.1646 2.48705
428 1 1 11.0468 0.684089 3.08278
426 1 1 12.8435 0.860938 2.11508
427 1 1 11.864 0.171729 2.44172
429 1 1 13.223 18.7491 1.72536
430 1 1 14.8973 0.915254 2.09736
431 1 1 14.2316 18.6637 2.24331
432 1 1 13.2953 0.45217 3.008
433 1 1 15.7464 0.454784 2.87371
436 1 1 15.1728 1.18268 3.44936
434 1 1 15.9227 1.37961 2.23586
435 1 1 16.8309 18.7898 3.36389
437 1 1 16.7008 18.0518 2.11918
440 1 1 16.9075 1.10224 2.76763
438 1 1 18.1429 0.776386 1.71542
439 1 1 17.4589 0.219253 2.3406
441 1 1 18.734 1.85607 1.82607
442 1 1 0.739604 2.60965 1.3104
443 1 1 1.66914 1.84303 3.16751
444 1 1 18.7006 2.86455 2.2723
445 1 1 1.71682 2.03377 1.86814
446 1 1 2.57495 2.92283 2.11798
447 1 1 2.89808 1.6818 2.56332
448 1 1 2.58747 2.60212 3.35526
449 1 1 4.60533 2.16566 1.72541
452 1 1 3.66869 2.57001 2.74208
450 1 1 4.57332 3.42537 1.85032
451 1 1 4.5457 1.51385 2.80392
453 1 1 5.60144 2.02302 2.01465
456 1 1 5.30465 2.97838 3.06756
454 1 1 7.1657 2.50258 1.93374
455 1 1 6.62873 1.93046 3.19206
457 1 1 8.10238 1.52451 1.88788
458 1 1 8.03361 2.65779 1.42972
459 1 1 8.3383 2.05976 3.39069
460 1 1 7.991 2.75512 2.51982
461 1 1 9.04014 1.75453 2.369
464 1 1 9.931 2.57824 2.54525
462 1 1 10.7865 3.34954 2.55232
463 1 1 10.1054 1.46072 2.0623
465 1 1 11.0116 2.24517 0.843196
468 1 1 11.2247 1.72582 2.83842
466 1 1 13.1865 2.57507 2.39064
467 1 1 12.1619 0.908518 3.14459
469 1 1 13.18 1.76302 1.1762
470 1 1 13.9148 2.31256 1.64803
471 1 1 13.8301 1.32697 2.88829
472 1 1 13.6769 3.50184 2.585
473 1 1 14.7713 1.96912 1.51622
476 1 1 15.4439 2.21641 2.69876
474 1 1 15.7243 2.46298 1.69957
475 1 1 15.9303 2.1451 3.64566
477 1 1 17.5921 1.66114 2.02158
480 1 1 16.8991 2.06554 2.90141
478 1 1 17.6319 2.9983 1.77085
479 1 1 18.061 2.0825 2.81105
481 1 1 0.301425 3.87061 1.88699
483 1 1 1.16052 2.83448 2.38806
485 1 1 2.31244 4.77105 1.62459
487 1 1 2.98446 3.57682 3.06971
489 1 1 3.52647 3.85885 1.4487
491 1 1 4.75728 3.9691 2.765
493 1 1 6.12605 3.69662 1.62919
495 1 1 6.13299 3.87107 3.02503
497 1 1 7.40128 3.54312 2.3452
499 1 1 8.62117 3.56419 2.13056
501 1 1 9.4167 3.36189 1.16096
503 1 1 10.5401 4.26532 3.1933
505 1 1 11.5951 3.41711 1.36439
507 1 1 12.6162 3.2383 3.41146
509 1 1 13.6999 4.27635 1.85017
511 1 1 15.2683 3.1976 2.88735
513 1 1 15.737 3.59274 1.86257
515 1 1 15.8542 4.0617 2.89264
517 1 1 16.6738 3.34439 2.41663
519 1 1 18.2178 4.22472 2.73092
482 1 1 1.17634 4.99985 1.89252
484 1 1 0.924902 4.02864 2.87688
521 1 1 18.8113 4.98202 2.23721
523 1 1 1.02716 5.52356 2.96559
486 1 1 3.12668 5.18548 2.08619
488 1 1 2.07693 3.91275 2.36325
525 1 1 1.45693 6.11299 2.01739
527 1 1 2.70692 6.12204 1.991
492 1 1 3.62771 4.40458 2.80528
529 1 1 4.20881 6.03948 2.06336
490 1 1 4.73253 5.05356 2.47832
496 1 1 5.74944 4.44484 2.16872
531 1 1 4.59098 5.92243 3.41548
533 1 1 6.14631 5.691 2.43523
494 1 1 7.04556 4.93566 2.08844
535 1 1 7.19653 5.79202 3.13364
498 1 1 8.45583 5.45129 1.80945
500 1 1 8.11357 4.53633 2.55724
537 1 1 7.60796 5.97056 2.05697
539 1 1 8.2488 5.73954 2.78526
504 1 1 9.56053 3.7709 3.08754
541 1 1 9.36967 5.9981 1.74153
502 1 1 10.3554 4.25105 2.12294
508 1 1 11.4345 4.24932 2.43316
543 1 1 10.5018 6.30725 2.74533
545 1 1 10.3819 5.35395 1.3453
506 1 1 11.9541 4.92613 1.7765
547 1 1 11.703 5.79145 2.74605
510 1 1 14.9018 4.56246 2.14273
512 1 1 12.6439 5.42143 2.95176
549 1 1 13.67 6.16729 1.89592
551 1 1 14.0975 5.31409 2.6988
516 1 1 15.3575 4.89859 3.10524
553 1 1 14.7727 5.93738 1.99275
514 1 1 16.9826 4.37519 1.45665
520 1 1 16.8048 4.71691 2.54239
555 1 1 16.1134 5.71176 2.7431
557 1 1 16.8465 5.64282 1.82098
518 1 1 17.8644 4.69278 1.96092
559 1 1 17.5464 5.57685 2.61319
522 1 1 0.628964 6.63619 1.55135
524 1 1 18.8201 6.73811 2.83748
526 1 1 2.81798 7.06218 1.51996
528 1 1 2.19125 6.59172 3.04036
532 1 1 3.68883 6.71571 2.72704
530 1 1 4.61168 6.9213 2.22195
536 1 1 5.5315 6.37847 3.05967
534 1 1 6.94847 6.81434 1.81521
538 1 1 8.61662 6.99131 2.56013
540 1 1 7.5595 6.78168 2.67249
544 1 1 9.69658 6.88332 2.30071
542 1 1 10.461 6.44289 1.55976
548 1 1 11.5339 6.85497 2.32087
546 1 1 12.6397 6.35636 1.56042
550 1 1 14.5409 6.61143 1.19266
552 1 1 12.789 6.56654 2.74509
556 1 1 14.7449 6.67786 2.9324
554 1 1 16.0033 6.79621 2.07004
560 1 1 16.6888 6.48176 3.08221
558 1 1 17.6868 6.49319 2.09746
561 1 1 0.0998308 7.74918 2.46115
562 1 1 0.918427 7.88523 1.8893
563 1 1 0.988913 7.02454 2.45097
564 1 1 18.3877 8.61919 2.35819
565 1 1 1.89996 7.9385 2.12937
566 1 1 3.059 8.14681 1.66842
567 1 1 2.53067 8.18989 2.97195
568 1 1 1.89973 8.91454 2.77739
569 1 1 3.86317 7.61752 1.7058
572 1 1 4.17938 8.57629 2.85853
570 1 1 4.84306 7.94696 1.9021
571 1 1 4.78054 7.71099 3.22898
573 1 1 5.71861 7.36108 1.54573
576 1 1 6.09592 8.28301 3.10747
574 1 1 6.65872 9.18483 2.10838
575 1 1 7.1643 8.23482 2.76386
577 1 1 8.01883 8.44126 1.68673
578 1 1 9.01162 8.91063 1.57052
579 1 1 8.66122 7.77508 3.26298
580 1 1 7.74261 8.99124 2.64222
581 1 1 9.16889 8.04635 2.35507
584 1 1 9.64779 8.41197 3.69141
582 1 1 10.1529 8.74591 2.14436
583 1 1 10.28 7.79396 2.43885
585 1 1 11.1252 7.43314 1.15569
588 1 1 11.2913 8.07647 2.83641
586 1 1 12.1511 8.96132 2.33902
587 1 1 12.3118 7.80838 2.70093
589 1 1 13.4827 7.2778 1.53792
590 1 1 14.0171 8.62937 1.96104
591 1 1 13.9923 7.60445 2.41577
592 1 1 13.1265 8.49653 2.61468
593 1 1 14.5894 7.98054 1.3985
596 1 1 14.5106 8.49601 3.02951
594 1 1 15.8676 8.51367 1.63295
595 1 1 15.3574 7.76473 2.34883
597 1 1 16.9853 7.37729 2.59318
600 1 1 16.9244 9.04913 2.28151
598 1 1 17.8955 8.58544 0.985291
599 1 1 18.0055 7.6338 3.24963
601 1 1 0.243328 9.37258 1.97753
603 1 1 0.839782 9.3331 2.95991
605 1 1 2.30216 8.93708 1.76551
607 1 1 3.10823 8.83695 2.49845
609 1 1 3.84711 8.83579 1.54227
611 1 1 4.79541 9.53595 3.2535
613 1 1 5.19294 8.94244 2.36199
615 1 1 6.87482 9.1465 3.12947
617 1 1 7.54416 9.3639 1.41347
619 1 1 8.82632 8.98632 2.70333
621 1 1 9.17353 10.0615 2.27748
623 1 1 10.1899 9.6468 2.6467
625 1 1 11.0221 9.47467 2.10131
627 1 1 11.8282 9.02054 3.32244
629 1 1 13.5233 9.44858 1.79233
631 1 1 14.3331 9.58214 2.46158
633 1 1 15.0594 9.26573 1.88456
635 1 1 16.2448 9.05055 3.08488
637 1 1 17.4413 9.65871 1.70951
639 1 1 18.0273 9.69062 2.50434
602 1 1 1.02296 11.1073 2.03134
604 1 1 0.274342 10.3074 2.87281
641 1 1 18.2799 11.3101 2.26325
643 1 1 1.56425 11.9769 2.77273
606 1 1 3.04065 9.85183 2.07274
608 1 1 1.6852 10.7689 3.00329
645 1 1 1.9838 11.2406 1.62332
647 1 1 2.97869 11.2668 2.73737
612 1 1 3.74871 9.83591 2.8377
649 1 1 3.72111 11.0317 1.84713
610 1 1 4.97033 10.2485 1.96114
616 1 1 5.75958 9.75399 2.90757
651 1 1 5.13232 11.7154 3.64157
653 1 1 5.56435 11.3791 2.48722
614 1 1 6.87503 10.5603 1.51356
655 1 1 6.34199 12.0673 2.81958
618 1 1 7.98068 10.7281 2.04069
620 1 1 7.67722 10.5675 3.27173
657 1 1 7.68242 11.1021 0.945298
659 1 1 8.56012 11.6586 2.92458
624 1 1 9.08072 10.7378 3.04528
661 1 1 9.65611 11.12 2.01508
622 1 1 10.4939 10.5393 1.74035
628 1 1 11.5425 9.96427 2.9595
663 1 1 10.1798 10.6991 2.77648
665 1 1 11.6711 11.0114 2.35945
626 1 1 12.9638 9.91965 3.00393
667 1 1 12.4689 10.8593 3.03496
630 1 1 14.3813 10.7143 1.84803
632 1 1 13.8695 10.9969 2.77735
669 1 1 13.2955 11.4447 1.79379
671 1 1 14.5493 11.7831 3.45286
636 1 1 14.7645 10.3082 2.95557
673 1 1 15.1909 11.4361 2.6024
634 1 1 15.6885 10.4283 2.09641
640 1 1 16.806 10.2103 2.9514
675 1 1 16.178 11.2295 2.91574
677 1 1 16.9797 11.1915 1.40345
638 1 1 17.4791 10.666 2.32877
679 1 1 17.4543 11.9664 2.46771
642 1 1 0.882706 12.2068 1.61885
644 1 1 18.4767 12.3175 3.10999
646 1 1 2.13531 12.6771 1.94563
648 1 1 1.91172 12.9277 3.04237
652 1 1 4.07662 11.981 2.53586
650 1 1 4.61764 12.0685 1.61925
656 1 1 5.13496 12.3802 2.53478
654 1 1 6.51203 12.952 1.90045
658 1 1 9.04145 12.1434 1.73603
660 1 1 7.50652 12.3528 2.66299
664 1 1 9.5998 12.3462 2.62485
662 1 1 10.4351 12.0863 2.0372
668 1 1 11.6062 11.6782 3.17834
666 1 1 12.6896 12.5006 2.25252
670 1 1 14.0753 12.0992 1.34191
672 1 1 13.2098 11.8961 2.96451
676 1 1 14.5037 13.1171 3.43378
674 1 1 15.8512 12.8241 1.93735
680 1 1 16.8185 12.8565 2.58238
678 1 1 17.6871 12.9253 2.09153
681 1 1 0.282086 13.6727 2.37014
682 1 1 0.698183 14.8964 2.33712
683 1 1 0.712931 12.5483 3.00831
684 1 1 18.2295 14.8302 3.09707
685 1 1 1.261 13.028 2.24205
686 1 1 2.61442 14.408 1.37255
687 1 1 2.17139 13.8492 2.39755
688 1 1 1.49419 13.9838 3.3949
689 1 1 3.17983 13.7715 2.02919
692 1 1 3.70182 13.9709 2.9064
690 1 1 4.73862 14.2388 2.27215
691 1 1 4.3937 13.2776 1.85248
693 1 1 5.38601 13.4401 2.13072
696 1 1 5.90451 14.0654 2.79532
694 1 1 7.03778 13.6004 1.26045
695 1 1 6.12793 13.0621 3.20744
697 1 1 7.68297 12.9489 1.56198
698 1 1 9.35256 14.6551 1.96894
699 1 1 8.00916 13.3319 2.83891
700 1 1 7.13725 13.791 2.46053
701 1 1 8.5987 13.5162 2.096
704 1 1 9.26992 14.2137 3.1321
702 1 1 10.1278 13.9702 1.34589
703 1 1 9.64027 13.663 2.24096
705 1 1 10.633 13.6332 2.26833
708 1 1 11.7477 14.5086 2.32165
706 1 1 12.5925 13.9189 1.03348
707 1 1 12.1949 12.7273 3.17271
709 1 1 13.98 13.0872 1.37153
710 1 1 13.4472 14.396 2.55511
711 1 1 13.6608 13.194 2.6078
712 1 1 13.0583 13.889 3.40126
713 1 1 14.9058 13.3479 1.85749
716 1 1 14.9299 14.0237 3.07483
714 1 1 15.7958 14.1069 1.90686
715 1 1 15.9807 13.2649 3.08371
717 1 1 17.4666 13.7379 1.24874
720 1 1 17.2249 13.7911 2.53848
718 1 1 18.2103 14.0003 2.08825
719 1 1 18.2171 13.4116 2.99781
721 1 1 18.6905 15.2605 1.74492
723 1 1 0.692034 15.412 3.33943
725 1 1 1.89425 15.1566 1.77942
727 1 1 2.38658 14.6421 2.97359
729 1 1 3.26077 14.9564 2.00897
731 1 1 4.92254 15.6113 2.41922
733 1 1 5.28333 14.9084 1.43786
735 1 1 6.84388 14.7886 2.52342
737 1 1 7.8112 15.6183 2.57674
739 1 1 8.69144 15.1978 3.25957
741 1 1 9.1098 15.9737 1.47357
743 1 1 10.4759 14.5553 2.8328
745 1 1 11.8267 14.722 1.22016
747 1 1 11.8356 15.6035 2.5141
749 1 1 12.775 15.1697 2.43241
751 1 1 14.5823 15.0455 2.65588
753 1 1 14.8147 15.299 1.62101
755 1 1 15.7472 15.0057 2.61419
757 1 1 16.8627 15.9922 2.23006
759 1 1 17.1964 15.1261 3.41863
722 1 1 1.00462 15.7452 2.08969
724 1 1 0.112569 16.0867 2.48619
761 1 1 0.497029 17.3501 1.5093
763 1 1 1.83644 17.5664 3.31082
726 1 1 3.0241 16.2548 1.52369
728 1 1 1.00051 16.5301 2.9523
765 1 1 2.17909 17.7925 1.45312
767 1 1 2.63588 16.3185 3.24754
732 1 1 4.10088 16.2775 2.88605
769 1 1 4.00031 17.3016 1.82874
730 1 1 4.24273 16.2722 1.57958
736 1 1 6.42111 15.8407 3.01197
771 1 1 4.70216 17.1646 3.14643
773 1 1 5.90922 16.6174 2.39898
734 1 1 7.00492 16.1574 1.88687
775 1 1 6.76417 16.8699 2.98919
738 1 1 7.96584 15.753 1.54316
740 1 1 7.7735 16.6246 2.84475
777 1 1 7.91103 16.7973 1.82211
779 1 1 8.29887 17.5104 3.08392
744 1 1 9.73611 15.5083 2.35337
781 1 1 9.73619 16.7495 1.74767
742 1 1 11.007 15.3211 1.94742
748 1 1 11.371 16.3275 3.13211
783 1 1 9.49771 16.5693 3.33528
785 1 1 10.9081 16.8761 2.34363
746 1 1 11.974 16.8029 1.94023
787 1 1 12.2599 16.7675 3.53803
750 1 1 14.8632 16.4118 1.54905
752 1 1 12.8646 16.1738 2.43407
789 1 1 13.4711 16.6801 1.64629
791 1 1 13.8785 16.9761 2.75999
756 1 1 15.3477 15.9178 2.60773
793 1 1 14.7283 17.3557 2.09641
754 1 1 15.8793 16.2606 1.54125
760 1 1 17.9364 16.4332 2.559
795 1 1 16.2816 16.5824 2.65796
797 1 1 17.1445 17.1027 1.61658
758 1 1 17.792 16.0118 1.56473
799 1 1 17.1321 17.3353 2.79636
762 1 1 1.27077 17.8419 2.14352
764 1 1 0.534882 17.3062 2.71296
766 1 1 3.36594 17.4346 2.84038
768 1 1 2.50242 18.4961 2.27421
772 1 1 4.01642 17.7186 3.67033
770 1 1 5.15863 17.9271 1.76974
776 1 1 5.84125 17.6667 2.6212
774 1 1 6.33638 18.1193 1.57963
778 1 1 8.66109 17.6054 1.87385
780 1 1 7.14867 17.8388 2.91118
784 1 1 10.1804 17.7351 2.71775
782 1 1 9.96657 17.8413 1.72027
788 1 1 11.7824 17.3999 2.74236
786 1 1 12.1825 17.7909 1.89166
790 1 1 13.6702 17.8173 1.99513
792 1 1 12.8284 17.2496 2.55598
796 1 1 15.1185 18.1929 2.77141
794 1 1 15.7428 17.5863 1.49067
800 1 1 16.0839 18.0334 2.94924
798 1 1 17.9407 17.7371 2.37869
801 1 1 0.39124 0.420779 4.36209
802 1 1 1.11408 0.864355 2.90468
805 1 1 1.81077 0.333765 3.72975
806 1 1 3.03126 1.0224 4.17449
809 1 1 3.93633 0.188015 3.92766
810 1 1 4.13718 1.42744 3.91969
813 1 1 5.42317 18.7262 3.9616
814 1 1 6.49492 1.15141 4.04583
817 1 1 7.42902 0.371886 3.77016
818 1 1 8.40983 0.746801 3.44705
821 1 1 9.11457 18.7204 3.61498
822 1 1 10.4491 18.7326 3.78245
825 1 1 11.616 18.4072 3.49619
826 1 1 11.8494 0.446301 4.02566
829 1 1 12.595 18.668 3.84625
830 1 1 14.5894 0.0504396 3.3271
833 1 1 15.7172 18.7033 3.72668
834 1 1 16.3563 1.02065 3.74799
837 1 1 17.4194 18.3803 4.46744
838 1 1 17.6703 1.29456 3.94762
841 1 1 18.5644 2.17868 3.73741
842 1 1 1.03549 2.81232 3.535
845 1 1 2.07898 1.95102 4.20938
846 1 1 3.17137 3.26545 4.09918
849 1 1 3.16115 1.87499 3.69867
850 1 1 4.90886 2.71706 4.01027
853 1 1 5.57058 2.12138 3.50766
854 1 1 7.01172 3.16785 3.20675
857 1 1 7.62102 2.20086 4.36344
858 1 1 9.08897 3.27537 4.01451
861 1 1 9.25766 1.52775 3.48077
862 1 1 10.2203 3.21871 3.60295
865 1 1 11.0959 1.58198 4.27339
866 1 1 12.0743 2.85546 4.18096
869 1 1 13.0766 2.17374 3.41825
870 1 1 13.9624 2.96437 4.04858
873 1 1 14.9 2.30276 3.75855
874 1 1 16.0805 3.20543 3.61353
877 1 1 16.7877 2.11759 4.646
878 1 1 17.844 3.78073 4.20043
881 1 1 18.7955 3.77385 3.45494
885 1 1 1.73687 3.77219 4.2719
889 1 1 3.96054 4.29376 3.84016
893 1 1 5.319 3.79303 3.84564
897 1 1 7.94114 3.64904 3.18782
901 1 1 9.98011 3.73945 4.48265
905 1 1 11.2966 3.63539 3.64318
909 1 1 13.2797 3.9233 3.91777
913 1 1 15.282 3.73566 4.34577
917 1 1 16.6683 3.97212 3.95403
882 1 1 0.146687 4.76304 4.0699
921 1 1 18.4612 5.59824 3.45192
886 1 1 2.85476 4.82212 3.67873
925 1 1 2.00514 5.14892 3.24649
929 1 1 3.42324 5.72684 3.83942
890 1 1 4.5857 5.07394 4.11397
933 1 1 5.5623 5.45576 3.23762
894 1 1 7.12846 4.30267 3.09053
898 1 1 8.69085 4.43709 3.6238
937 1 1 7.72574 4.89694 3.56003
941 1 1 9.09802 5.45213 4.05613
902 1 1 10.1693 4.61486 4.04274
945 1 1 10.7244 6.08333 3.8377
906 1 1 12.8914 5.19104 4.0989
910 1 1 14.3101 3.93722 3.26531
949 1 1 13.9325 4.74682 4.23777
953 1 1 14.5092 5.57479 3.75563
914 1 1 15.8918 4.68211 4.13305
957 1 1 16.6678 5.40997 3.62046
918 1 1 17.8058 4.68721 3.82256
922 1 1 1.10074 6.47535 3.55558
926 1 1 3.35266 6.82072 3.91675
930 1 1 4.32783 6.84855 3.66438
934 1 1 6.68686 6.61628 3.52054
938 1 1 8.96719 6.82053 3.66272
942 1 1 9.71976 6.27149 3.35399
946 1 1 12.7152 6.3014 3.92544
950 1 1 13.6743 6.91917 3.17124
954 1 1 15.5537 5.78022 4.10989
958 1 1 17.6876 6.48724 3.31039
961 1 1 18.8006 7.28043 3.91285
962 1 1 0.797531 8.07146 3.15762
965 1 1 2.20435 6.87033 4.1455
966 1 1 2.52251 8.297 3.99382
969 1 1 3.56331 7.60299 3.27856
970 1 1 4.37154 8.37159 4.15401
973 1 1 5.83097 7.5197 3.8454
974 1 1 7.02989 8.49056 3.88771
977 1 1 7.91312 7.12561 4.16297
978 1 1 8.23146 8.79575 3.68502
981 1 1 9.79801 7.44547 3.25934
982 1 1 10.8189 8.56395 3.77769
985 1 1 10.7966 7.40841 3.82506
986 1 1 11.858 8.01315 3.7332
989 1 1 12.9615 7.77282 3.57239
990 1 1 14.181 8.31964 3.99614
993 1 1 14.4182 7.25127 4.07627
994 1 1 16.2773 8.6845 4.13597
997 1 1 16.4139 7.50468 3.59524
998 1 1 17.978 8.63117 3.52633
1001 1 1 18.7297 9.44109 4.00847
1005 1 1 2.43149 9.67682 3.21796
1009 1 1 3.90313 9.641 3.82324
1013 1 1 5.25262 8.68999 3.43171
1017 1 1 7.76427 9.67154 3.78487
1021 1 1 9.44074 9.71127 3.2926
1025 1 1 11.5593 9.85007 4.19647
1029 1 1 13.0038 8.87435 3.68024
1033 1 1 14.8054 9.37371 3.44606
1037 1 1 17.0849 9.22676 3.74706
1002 1 1 0.936299 10.4378 3.67011
1041 1 1 0.335638 11.5025 4.1555
1006 1 1 3.15082 10.7084 4.201
1045 1 1 2.14196 11.5906 3.81962
1049 1 1 3.70488 10.7712 3.29852
1010 1 1 5.08507 10.7106 3.03674
1053 1 1 5.42971 10.8449 4.47273
1014 1 1 6.54521 10.5709 3.40734
1018 1 1 8.628 10.4037 3.99363
1057 1 1 7.46696 11.3642 4.71419
1061 1 1 9.58028 11.9907 4.00776
1022 1 1 9.77664 10.842 3.92545
1065 1 1 11.0053 10.6407 3.7507
1026 1 1 12.6768 9.90913 4.02005
1030 1 1 14.1376 10.5701 3.81642
1069 1 1 13.1319 11.0363 3.85865
1073 1 1 15.45 11.1332 3.70711
1034 1 1 16.4233 10.6704 4.03235
1077 1 1 16.7583 11.6276 3.6774
1038 1 1 17.612 11.1578 3.26997
1042 1 1 1.30533 12.3152 3.8725