ITEM: TIMESTEP
4000
ITEM: NUMBER OF ATOMS
8000
ITEM: BOX BOUNDS pp pp pp
0.0000000000000000e+00 1.8820720577620570e+01
0.0000000000000000e+00 1.8820720577620570e+01
0.0000000000000000e+00 3.7641441155241139e+01
ITEM: ATOMS id mass type x y z
917 1 1 0.749367 1.71704 0.0834817
7524 1 1 3.66118 5.65241 3.04808
319 1 1 3.30285 17.2913 0.239633
770 1 1 6.0683 17.8519 36.2306
7215 1 1 3.0083 18.6436 35.6989
6 1 1 6.06423 0.12502 0.464926
7644 1 1 7.1299 2.22461 1.13562
7339 1 1 6.57849 0.561592 1.3258
7620 1 1 8.27187 0.315288 0.397379
343 1 1 8.38518 3.37037 37.0629
416 1 1 8.0162 3.14526 1.20058
937 1 1 9.53806 2.5878 3.24544
780 1 1 10.5033 17.3847 3.03333
15 1 1 10.7995 3.01569 0.946429
7661 1 1 8.05079 17.7105 1.57838
7667 1 1 8.23967 1.11122 1.10603
785 1 1 14.9199 17.1226 2.44744
346 1 1 9.11558 0.192491 1.06316
22 1 1 10.9775 0.482481 1.17838
7619 1 1 11.5058 1.53914 3.47565
746 1 1 13.7978 0.911615 1.57204
7665 1 1 12.0357 1.74923 37.569
7601 1 1 0.0675483 2.57086 0.475599
77 1 1 18.4626 1.55107 36.1409
7992 1 1 0.813807 2.04442 1.9937
356 1 1 17.9287 0.143457 1.86861
761 1 1 2.27462 3.19374 0.190288
7608 1 1 2.18641 0.699169 37.1598
408 1 1 2.78488 2.56476 35.2016
7631 1 1 4.66397 0.798244 1.89799
89 1 1 5.19714 3.50396 3.06608
857 1 1 6.37271 1.37796 3.62186
849 1 1 4.14801 2.26968 0.26868
935 1 1 4.33916 1.33041 35.9066
533 1 1 9.57098 4.89745 0.344459
371 1 1 7.07443 5.24794 37.5296
57 1 1 6.89169 2.57935 35.5376
7298 1 1 6.10281 2.57866 3.19511
55 1 1 9.2008 2.2452 1.44995
897 1 1 9.74499 4.48444 36.665
1687 1 1 9.59108 3.31086 1.37151
838 1 1 10.4758 2.04273 3.19194
387 1 1 13.1905 3.00966 2.50131
1270 1 1 10.348 1.04626 2.39729
116 1 1 11.7375 1.64744 36.124
65 1 1 12.5562 2.01553 0.758926
39 1 1 12.5307 2.94384 36.6606
431 1 1 16.2923 2.93527 37.1446
109 1 1 17.5345 2.61721 1.84226
7996 1 1 1.42974 18.4811 0.586127
430 1 1 0.537548 1.36987 2.63238
479 1 1 0.240366 2.47448 36.3596
841 1 1 1.11522 1.45959 1.03952
1289 1 1 3.37866 1.89114 35.7622
7678 1 1 2.34773 1.53666 1.41749
37 1 1 2.84327 2.96105 37.0246
885 1 1 5.09026 3.09612 2.14255
521 1 1 6.0594 2.42964 36.4942
900 1 1 5.01302 1.95362 36.4033
455 1 1 5.6461 4.09047 1.88392
494 1 1 8.92053 3.19685 35.6622
7657 1 1 7.50768 3.85361 37.3822
461 1 1 9.63884 2.4415 0.532777
28 1 1 11.5691 3.97183 1.28321
623 1 1 11.8339 5.24262 0.552352
505 1 1 13.3922 2.76893 1.5295
7746 1 1 13.8409 3.45022 37.1686
72 1 1 16.8976 4.29253 0.569892
7756 1 1 1.00391 6.21481 1.79274
7950 1 1 18.1458 2.75916 37.0827
73 1 1 16.703 1.84079 0.633147
442 1 1 1.1549 4.35526 0.0626686
127 1 1 2.28329 3.63986 35.65
729 1 1 1.97005 6.91478 37.0827
7249 1 1 1.58394 6.13628 0.687689
7643 1 1 2.58152 6.12249 1.71557
933 1 1 2.9615 2.17376 0.23991
485 1 1 3.87008 5.44066 35.4744
7700 1 1 6.92493 4.4983 0.645726
209 1 1 5.98452 4.71212 0.447123
52 1 1 6.43617 8.12781 0.281074
7371 1 1 4.55787 3.81803 0.398498
497 1 1 8.24223 7.0074 0.665441
532 1 1 9.02466 5.72437 36.863
575 1 1 9.31576 5.57661 35.5139
462 1 1 9.5098 7.0704 35.9511
537 1 1 10.7832 4.62187 1.12334
224 1 1 11.0908 5.32933 1.94919
633 1 1 9.66928 5.46063 1.19406
146 1 1 13.6172 5.65451 0.384667
152 1 1 15.1457 3.23887 37.0907
476 1 1 14.4033 6.40071 0.637097
7392 1 1 12.7909 4.08578 36.3064
80 1 1 17.3827 4.54189 35.3271
7236 1 1 17.7924 5.3653 37.3158
517 1 1 18.5861 3.10687 35.3138
554 1 1 16.6218 6.54927 1.96538
7603 1 1 16.2991 5.50023 0.0905006
520 1 1 1.24375 4.97918 0.890663
7715 1 1 18.6013 5.66674 1.47825
88 1 1 1.7297 8.30557 36.9987
444 1 1 17.3432 8.20453 0.834668
999 1 1 18.6564 6.66908 0.427088
524 1 1 3.43537 7.69703 34.0927
440 1 1 2.94891 6.67495 0.256425
7239 1 1 1.01522 6.85441 0.204624
10 1 1 7.11497 7.17611 3.69853
445 1 1 4.77192 7.49995 1.78787
99 1 1 8.45445 9.87246 35.8612
534 1 1 6.44908 7.82143 36.8112
7699 1 1 8.65498 4.18541 0.121944
7423 1 1 8.97158 3.02506 2.28317
502 1 1 12.2237 4.65424 35.5773
570 1 1 11.0426 6.29791 36.4578
7821 1 1 11.53 7.98505 36.3288
989 1 1 14.2433 6.10632 36.8776
578 1 1 15.2849 7.02346 37.2125
7591 1 1 13.4527 7.79214 36.6123
7798 1 1 14.5306 7.29284 2.11071
1000 1 1 14.6476 5.34518 0.43168
7359 1 1 18.0948 6.63855 36.8535
1396 1 1 16.5047 11.0431 1.67907
559 1 1 17.9201 9.71652 0.919281
74 1 1 17.3957 8.49369 37.028
195 1 1 18.2363 7.81289 0.200627
1329 1 1 18.3879 8.1557 36.7185
44 1 1 0.935145 6.2432 36.4362
1409 1 1 2.00184 7.28121 1.19854
128 1 1 1.98824 12.5208 36.7713
92 1 1 5.00605 9.23611 35.5796
81 1 1 3.02725 8.74071 1.57001
446 1 1 8.73162 6.88766 2.36166
1369 1 1 1.76216 9.89417 0.480418
983 1 1 4.64851 8.63492 1.3754
95 1 1 7.02157 9.69072 36.9432
607 1 1 10.4624 8.04333 37.5157
619 1 1 9.85392 9.05432 36.9715
7855 1 1 11.6465 6.17974 37.5436
1067 1 1 11.0292 9.16344 1.07667
7743 1 1 10.4437 7.21571 36.695
186 1 1 13.3361 8.40407 0.261726
7800 1 1 17.2555 7.5377 36.4457
552 1 1 15.348 6.28529 0.347053
634 1 1 0.641004 5.8374 0.554113
549 1 1 16.365 7.98606 36.9201
78 1 1 15.0259 9.84852 0.813319
1314 1 1 18.5807 9.61722 1.64678
7395 1 1 15.5083 11.9413 1.09063
7641 1 1 18.6763 6.71382 3.62489
1323 1 1 0.982819 8.65408 37.5924
7879 1 1 1.3018 8.49709 36.0796
239 1 1 1.7473 9.3974 1.84085
153 1 1 2.27962 8.08235 1.79373
1048 1 1 5.12544 10.2387 1.47785
197 1 1 3.06895 10.6936 0.394823
222 1 1 5.13658 9.20067 36.9862
138 1 1 7.62634 7.17349 2.48802
7774 1 1 7.3352 11.2212 2.15105
1461 1 1 5.65033 8.08669 1.3986
7772 1 1 9.28332 9.96367 1.88812
1109 1 1 10.5543 9.9496 37.6036
7751 1 1 9.70378 7.60642 0.510476
303 1 1 12.3831 9.07738 3.73609
665 1 1 12.3021 8.58808 36.1493
7432 1 1 12.3699 8.98323 1.33223
265 1 1 13.1644 11.5703 36.3071
7466 1 1 11.221 8.55071 35.3489
230 1 1 16.1605 10.2795 37.4069
276 1 1 15.5784 11.0511 0.555138
557 1 1 16.5234 11.3051 37.3288
4 1 1 15.5063 13.0025 0.720532
636 1 1 15.6388 8.76468 0.349943
7758 1 1 16.2837 8.42141 1.4943
1450 1 1 0.883753 12.1171 2.05261
1521 1 1 1.06489 11.1822 1.65929
598 1 1 3.33685 14.1427 36.6288
165 1 1 18.3041 12.0225 0.363579
1365 1 1 3.1478 11.9569 1.54313
7847 1 1 4.49666 9.51672 0.737542
7734 1 1 8.84287 9.82117 0.978175
536 1 1 7.44985 9.59041 3.89842
374 1 1 7.86484 10.0296 1.75882
976 1 1 11.5725 12.5536 37.2786
228 1 1 11.4949 10.7943 0.494255
1063 1 1 13.4824 9.65115 33.3653
7912 1 1 11.2135 11.2564 2.89078
7428 1 1 15.3068 11.2586 1.87548
308 1 1 14.8873 10.3032 37.5555
235 1 1 12.2638 11.4291 2.42225
236 1 1 16.5871 14.3673 0.7143
7875 1 1 16.4743 12.8678 35.6133
1389 1 1 15.6583 12.8231 1.83572
192 1 1 18.2174 12.5915 1.73224
7804 1 1 16.9944 10.1631 2.25378
962 1 1 0.568583 10.8998 36.3115
281 1 1 18.2872 9.11327 37.2709
84 1 1 18.2409 10.2627 2.40818
1154 1 1 2.59014 14.0048 1.34163
7880 1 1 0.994083 12.3263 0.274993
365 1 1 3.71323 10.4353 1.70128
1089 1 1 6.05335 12.3076 1.13087
613 1 1 5.35751 12.7645 2.62084
7499 1 1 5.19206 12.1985 0.076896
7808 1 1 9.63672 11.2827 0.146233
687 1 1 6.69623 13.0222 2.04687
1098 1 1 8.47559 9.16061 2.38117
296 1 1 8.2261 13.5859 0.858164
660 1 1 10.633 10.9647 37.3184
705 1 1 12.7083 13.2522 36.6034
269 1 1 12.6869 13.8462 2.76268
7903 1 1 15.713 14.717 0.146298
273 1 1 12.4115 12.3916 0.855836
639 1 1 17.49 14.0835 4.75889
1078 1 1 16.4853 13.3978 0.687731
1040 1 1 18.0812 14.7673 37.4879
7525 1 1 17.2574 11.6334 36.7212
204 1 1 16.8706 15.6734 0.68026
404 1 1 3.3163 13.2511 0.657678
7835 1 1 1.47576 12.6735 1.16384
643 1 1 3.65855 14.5707 1.64919
1010 1 1 6.03123 13.4164 3.15305
287 1 1 6.18386 12.905 36.528
567 1 1 6.12435 11.9868 35.7439
342 1 1 7.49003 12.5623 0.10616
344 1 1 8.42664 15.3036 2.4791
1573 1 1 8.37453 12.7418 1.60942
697 1 1 11.6358 11.3757 37.2187
602 1 1 11.6572 13.9944 0.222683
982 1 1 13.2453 16.1317 37.0442
379 1 1 13.0145 15.4845 1.45898
7834 1 1 13.2846 13.1258 1.95693
7440 1 1 13.5571 12.549 36.4247
674 1 1 16.2587 14.39 37.0112
7561 1 1 16.5552 15.3797 1.95738
7925 1 1 17.456 12.508 0.659329
7844 1 1 15.5664 16.1204 2.81699
683 1 1 15.5556 13.8865 1.29666
7924 1 1 0.319909 9.53448 0.0741332
397 1 1 0.870376 14.9467 0.25335
1125 1 1 1.44544 14.9083 36.9939
648 1 1 2.05227 14.6622 0.334618
7888 1 1 3.93552 11.0729 3.15999
700 1 1 7.64347 15.951 1.66336
332 1 1 4.92986 17.5411 0.383264
7930 1 1 6.5421 16.4933 0.311553
7937 1 1 6.40175 13.6092 0.133847
743 1 1 9.13051 13.5357 36.6836
249 1 1 8.6592 15.552 1.27451
7858 1 1 10.6026 15.2523 0.514467
658 1 1 12.7367 17.3679 0.307775
7945 1 1 9.9489 15.7053 3.36684
666 1 1 14.4974 15.5412 37.543
7551 1 1 14.4968 14.2244 1.283
749 1 1 13.8039 16.8648 36.0314
7991 1 1 14.1736 15.3651 36.4293
314 1 1 17.7846 15.5628 36.5653
328 1 1 17.6645 18.2766 2.73505
7040 1 1 17.5522 16.6364 1.22507
797 1 1 0.305186 17.6583 0.588213
732 1 1 3.219 17.2797 36.8297
7650 1 1 0.644717 17.0477 36.4016
721 1 1 4.27729 18.2059 37.5109
1128 1 1 4.66821 14.5221 3.17749
771 1 1 3.23221 18.0071 1.29889
85 1 1 4.54825 15.2978 35.8322
775 1 1 8.45679 17.3244 0.430244
1541 1 1 6.78011 0.234792 3.57037
7531 1 1 7.42806 17.8917 3.44654
698 1 1 9.75159 16.7733 3.18213
655 1 1 8.61404 17.0974 4.54777
304 1 1 10.8279 14.8952 1.52628
7983 1 1 9.76266 16.0604 1.10449
7994 1 1 11.7059 16.1667 0.270411
675 1 1 14.057 16.7072 37.358
306 1 1 14.7754 16.2991 0.445692
7188 1 1 14.1535 0.395926 0.475608
7547 1 1 13.8996 17.8058 36.8121
7990 1 1 12.6643 18.7821 1.14799
7881 1 1 15.2199 14.8051 36.7518
7228 1 1 16.602 0.0378469 2.13913
351 1 1 16.1045 17.5145 36.8927
7635 1 1 0.38215 16.6744 37.3922
7280 1 1 3.13258 1.07045 1.7956
7998 1 1 3.13883 0.313405 0.475866
731 1 1 0.649157 18.2164 35.6924
7972 1 1 2.05101 16.2679 1.20621
448 1 1 5.26528 18.2043 37.2138
7971 1 1 5.38236 16.6221 -0.011443
363 1 1 4.58106 16.0317 37.4644
726 1 1 6.36191 17.5043 0.740773
60 1 1 7.11982 18.3273 0.697447
7539 1 1 6.12677 3.71951 0.324284
419 1 1 8.44496 0.0507559 1.83115
67 1 1 8.24599 1.15178 36.6966
382 1 1 11.9059 0.857341 5.43688
829 1 1 8.50421 18.5386 2.85491
742 1 1 9.83594 0.636549 36.5404
7938 1 1 10.9084 1.09946 0.0836478
6836 1 1 13.9825 18.1393 35.1761
31 1 1 10.787 16.8372 0.768642
7948 1 1 13.353 18.2692 1.94689
7997 1 1 12.3964 2.40977 1.78392
7622 1 1 15.986 15.2072 0.924938
352 1 1 15.1813 17.5163 1.08638
7515 1 1 14.1955 16.7475 3.14105
395 1 1 16.459 18.4977 36.9984
7552 1 1 15.7828 2.4531 0.698179
752 1 1 17.2916 1.27939 4.61265
157 1 1 0.690557 18.2942 3.42474
40 1 1 0.596831 0.285491 4.25964
321 1 1 1.55038 2.92223 2.35774
1208 1 1 3.8855 18.8067 1.5403
41 1 1 6.35445 0.835631 2.58411
764 1 1 5.10447 1.09037 0.236699
1168 1 1 6.7119 1.95926 2.69381
774 1 1 4.69495 0.406078 37.0473
385 1 1 8.67995 2.00222 2.43214
850 1 1 9.83458 2.45023 4.35698
7626 1 1 9.44386 1.55903 2.95484
422 1 1 12.6303 0.342467 2.11545
824 1 1 14.4081 0.246604 2.31111
818 1 1 11.0225 17.0297 4.95993
1143 1 1 15.1878 1.25015 3.26941
784 1 1 15.0758 1.01803 2.17174
389 1 1 14.5371 18.2628 3.48172
798 1 1 14.9668 17.4239 4.12615
1106 1 1 17.1942 0.888836 1.79262
1272 1 1 15.3367 0.101724 0.566479
115 1 1 18.61 2.09254 2.24779
835 1 1 18.7298 0.751109 1.35322
33 1 1 18.1886 15.9489 0.315698
833 1 1 18.194 1.73058 1.28979
324 1 1 3.89014 1.47393 1.14076
35 1 1 18.1731 1.53806 3.60593
362 1 1 2.69422 5.69464 0.717963
47 1 1 2.29404 1.61517 3.42967
491 1 1 3.69631 2.16795 2.37226
7616 1 1 5.53576 0.146328 3.04124
765 1 1 5.86313 4.57344 3.02233
7219 1 1 6.37541 3.45499 2.64085
93 1 1 6.20762 3.95569 5.01424
7698 1 1 8.23695 4.98341 2.60421
908 1 1 10.1875 2.32362 1.9628
470 1 1 10.9395 4.11414 4.27034
473 1 1 10.1963 3.27962 2.57295
869 1 1 10.7825 0.38703 3.21245
876 1 1 11.2166 4.17818 3.31359
30 1 1 13.1423 3.66425 0.933505
511 1 1 11.2634 3.295 2.34161
32 1 1 13.3889 1.87139 2.27849
787 1 1 15.5576 1.53565 0.230199
478 1 1 18.0984 3.9824 0.657533
514 1 1 16.821 4.40541 2.06684
1675 1 1 0.47855 3.69148 0.648776
82 1 1 0.926358 3.66619 1.97387
899 1 1 1.2639 1.74101 3.15679
87 1 1 2.68325 4.00604 0.827667
488 1 1 2.89402 3.41816 3.22687
449 1 1 1.69447 6.81975 2.67828
475 1 1 3.57139 3.3181 0.630282
889 1 1 5.16925 1.8312 3.07527
454 1 1 4.49409 5.76368 37.4368
376 1 1 9.02256 4.90654 1.953
504 1 1 8.41661 2.81878 3.05609
14 1 1 6.93314 4.83246 2.94869
500 1 1 11.3609 2.86579 3.2703
139 1 1 12.4607 1.34604 2.51314
460 1 1 10.4708 4.39411 2.56266
556 1 1 12.6791 4.7028 0.705708
7636 1 1 15.1426 2.97008 1.71396
34 1 1 17.0053 3.25114 0.911164
506 1 1 13.9706 2.94962 0.415359
113 1 1 14.243 3.0405 2.57961
786 1 1 16.0882 3.39936 1.54112
480 1 1 17.2171 3.50234 37.5967
155 1 1 1.992 1.60858 0.26498
1232 1 1 1.31287 2.56633 0.989461
1751 1 1 17.7858 4.79686 1.5024
523 1 1 1.45839 5.87986 3.10291
441 1 1 17.82 8.21182 2.32916
1290 1 1 3.5971 6.27949 1.32589
1337 1 1 5.20361 4.95934 1.42346
1254 1 1 6.09362 6.53232 5.54813
102 1 1 9.51592 3.47996 0.32513
945 1 1 6.66023 3.88041 1.38884
1295 1 1 7.35944 3.44225 2.47096
7611 1 1 10.4273 3.86101 0.0494945
814 1 1 7.63111 2.11753 2.18252
217 1 1 10.0685 3.45991 3.68328
909 1 1 11.0898 6.94266 1.81885
978 1 1 12.4885 4.58239 1.68309
538 1 1 12.4135 6.06173 0.619866
150 1 1 13.7253 4.6611 1.06996
134 1 1 14.591 6.62307 3.1362
420 1 1 13.4088 3.85262 1.83982
68 1 1 16.3054 4.88821 1.24363
471 1 1 15.0562 3.86481 1.40177
944 1 1 13.5086 6.89288 37.3525
7986 1 1 15.9524 3.52701 0.310279
594 1 1 16.3753 7.36821 3.15934
550 1 1 17.5394 5.85537 0.917361
519 1 1 17.904 6.5662 1.66681
1315 1 1 0.0613786 4.5597 1.98033
522 1 1 0.437571 6.12016 2.76185
1285 1 1 2.46339 6.58408 4.45072
7718 1 1 2.07976 8.54927 4.6192
922 1 1 18.0802 7.54954 1.52857
637 1 1 4.40718 6.07508 2.03861
886 1 1 2.31062 7.77069 0.0431469
90 1 1 3.49301 8.9221 2.53278
53 1 1 6.06507 8.52481 2.54536
171 1 1 9.35378 6.19385 1.91413
1334 1 1 3.92174 7.19908 4.3306
1774 1 1 4.54685 6.72886 3.55269
530 1 1 8.63542 7.43433 36.3275
91 1 1 10.2537 8.10377 1.29912
616 1 1 9.67178 4.45342 1.32469
177 1 1 10.8023 6.93833 0.426916
973 1 1 10.2394 6.51513 1.63562
579 1 1 12.4588 7.04776 0.349821
551 1 1 11.5638 7.34758 37.533
1036 1 1 12.68 7.28441 2.79119
231 1 1 13.4825 8.75674 1.62228
546 1 1 15.3319 4.96407 1.3887
196 1 1 15.8219 5.92525 36.7388
979 1 1 17.6096 7.04867 0.675769
881 1 1 17.3447 4.60801 36.7193
1360 1 1 16.4256 6.36778 0.887716
808 1 1 0.778061 7.65159 2.22812
1038 1 1 16.8548 7.50154 1.37689
481 1 1 0.0697823 6.65838 1.42882
1806 1 1 0.77143 7.81758 37.0134
1488 1 1 0.705179 7.82969 3.22535
131 1 1 3.00652 7.9259 3.61312
645 1 1 4.48291 8.01732 37.5231
1045 1 1 3.21582 7.9868 2.24479
611 1 1 7.35651 6.02723 3.29113
1401 1 1 4.25423 6.95145 37.1716
1339 1 1 4.45223 6.30525 4.40555
1019 1 1 10.006 6.85983 2.59231
647 1 1 7.62385 9.65438 0.372581
1327 1 1 8.99457 8.29608 1.39232
498 1 1 10.277 8.16442 3.84548
140 1 1 11.2036 8.03507 1.74409
1023 1 1 14.2366 8.78758 0.510098
1429 1 1 11.5195 9.19084 2.07568
7714 1 1 15.5946 6.1288 1.78598
958 1 1 16.8472 6.66454 37.4011
563 1 1 16.2353 7.40504 0.162288
200 1 1 17.0368 9.23815 1.18623
191 1 1 0.552667 9.05718 36.6744
124 1 1 2.48623 8.89211 0.635981
241 1 1 1.39386 8.46776 1.25382
564 1 1 2.2529 11.177 2.23721
7684 1 1 3.3859 8.02934 35.7649
1366 1 1 5.59329 9.10423 0.920044
1287 1 1 2.69619 11.8295 4.27819
164 1 1 2.43044 10.0248 1.16215
357 1 1 7.48237 9.79535 2.726
7841 1 1 4.3034 7.37214 0.801627
215 1 1 6.74396 9.30158 2.01764
566 1 1 5.86117 7.22434 2.33777
890 1 1 7.34189 8.71575 2.71617
178 1 1 10.0125 9.38548 1.93724
1417 1 1 7.82621 8.98392 1.53503
142 1 1 11.0216 10.263 1.27198
1105 1 1 9.67511 8.74085 0.491116
7748 1 1 8.21384 8.62201 0.249546
7827 1 1 9.33125 8.80854 3.34554
626 1 1 14.5832 7.70038 0.76535
188 1 1 14.5197 8.61759 1.61178
916 1 1 14.4461 11.6964 2.57356
568 1 1 0.0565718 8.32658 1.58986
202 1 1 1.22261 11.2462 37.456
1053 1 1 2.89485 9.55969 3.15298
233 1 1 5.01053 12.1135 1.49093
1003 1 1 3.70853 9.00791 37.054
925 1 1 5.39845 9.29265 2.19997
1061 1 1 8.46403 9.45033 3.5527
1420 1 1 9.63925 10.699 1.00464
7817 1 1 5.31688 13.3121 37.2683
615 1 1 9.79152 10.2167 3.42645
333 1 1 10.0986 11.9664 2.96337
7862 1 1 10.2664 11.0108 2.46729
7780 1 1 11.4087 11.6281 1.79402
624 1 1 10.5835 7.66801 4.95105
257 1 1 10.4448 11.6014 0.591217
1076 1 1 12.727 9.12596 0.0165858
614 1 1 11.1399 11.958 3.83926
261 1 1 11.8791 12.568 2.03158
600 1 1 14.0497 12.3095 3.52083
2238 1 1 16.2342 13.6046 3.28007
240 1 1 16.1296 11.5789 4.04382
270 1 1 17.2954 11.3185 0.343591
7921 1 1 1.91544 11.8584 0.509874
242 1 1 1.14195 9.0334 3.2107
7928 1 1 3.19895 10.646 2.68697
968 1 1 18.1115 13.0437 3.93171
358 1 1 6.60526 10.2951 2.5967
288 1 1 2.39057 12.5371 3.76442
7843 1 1 5.40356 10.8841 2.76857
337 1 1 7.1512 9.93766 5.16003
1532 1 1 5.67868 10.3584 3.79469
574 1 1 7.77724 11.9559 4.65212
216 1 1 8.94991 9.84468 4.47675
691 1 1 6.59004 11.9519 2.68586
16 1 1 6.24576 14.0911 2.2032
256 1 1 11.6036 11.9988 0.499433
259 1 1 12.0545 13.5246 1.82379
694 1 1 11.2753 10.2898 2.47789
254 1 1 11.2836 12.3365 2.83197
1069 1 1 13.8397 13.4941 2.95025
592 1 1 14.1736 12.6795 37.6135
1074 1 1 14.6021 11.6194 0.601093
271 1 1 13.4037 12.0301 37.4856
7840 1 1 14.5418 13.3405 0.730846
7838 1 1 14.737 12.5412 1.3618
1035 1 1 0.273281 15.4434 36.997
677 1 1 17.4297 13.1338 37.3022
1001 1 1 1.31215 11.5073 2.84933
720 1 1 0.154652 10.6762 1.8059
7442 1 1 0.518656 14.1736 34.9579
758 1 1 18.27 14.0426 1.27656
7964 1 1 1.57838 15.2886 0.99102
7482 1 1 3.97239 12.4522 1.85063
685 1 1 4.6509 13.9614 2.07494
1529 1 1 4.33288 13.7897 1.07689
1081 1 1 4.91042 11.7531 3.28394
696 1 1 4.84167 16.4265 0.811957
7975 1 1 7.27789 13.8515 3.53928
740 1 1 10.2849 17.473 1.93543
7856 1 1 7.21703 15.8032 3.8432
341 1 1 7.38842 14.623 4.36676
213 1 1 8.86081 14.2117 2.35128
7864 1 1 10.5947 14.0645 0.583136
1908 1 1 10.3979 13.8282 1.74093
229 1 1 9.40516 13.4722 0.823426
7829 1 1 13.0618 15.0252 0.318259
747 1 1 14.7742 13.0041 4.22891
277 1 1 11.2765 13.9191 2.25986
317 1 1 12.2184 14.546 3.67088
278 1 1 17.5011 15.0941 1.56955
7480 1 1 13.6731 12.3325 1.03994
1474 1 1 18.6451 18.3002 2.59118
724 1 1 0.661524 14.9585 3.57762
7920 1 1 15.5341 14.902 2.43136
769 1 1 18.7247 14.1713 4.20316
282 1 1 18.7451 14.7284 2.52237
325 1 1 3.32831 14.7271 3.57766
243 1 1 4.05214 13.1699 2.6085
1136 1 1 5.7855 13.3588 0.90227
1526 1 1 2.05808 17.3128 2.16173
411 1 1 6.81138 16.5151 1.36522
373 1 1 6.8839 15.7104 37.3227
1145 1 1 6.01588 15.4969 0.886015
7214 1 1 7.50453 17.0918 2.36485
7543 1 1 8.46826 13.0423 2.62774
1533 1 1 11.1938 17.0755 1.83651
736 1 1 11.7806 14.913 0.852543
662 1 1 12.4225 16.5428 1.10756
1151 1 1 12.713 15.4202 2.68433
699 1 1 11.9378 14.8376 2.06744
670 1 1 15.3784 16.0583 1.40451
1153 1 1 13.2392 14.6936 3.41423
7870 1 1 15.9776 16.8939 1.92881
590 1 1 16.5804 14.5468 2.58485
1199 1 1 0.0412417 13.5714 0.612116
394 1 1 18.3323 14.8075 3.46747
7887 1 1 18.715 17.4191 3.76639
399 1 1 1.20653 18.7261 1.66922
1198 1 1 18.6589 18.4311 1.45345
330 1 1 5.36088 16.4005 4.57306
812 1 1 3.22882 16.2358 37.5736
370 1 1 3.93568 16.9541 1.02292
7573 1 1 5.37926 16.03 3.36873
7610 1 1 7.11682 17.416 37.3517
29 1 1 7.68287 0.747743 3.41139
777 1 1 5.42487 17.7863 3.46037
690 1 1 7.04088 18.1321 1.99107
381 1 1 8.46734 16.7077 1.41694
1114 1 1 10.3526 16.2834 4.0722
701 1 1 9.6863 17.0208 4.47324
1142 1 1 14.1285 17.0967 1.25676
7913 1 1 14.5924 18.385 1.25415
7125 1 1 15.4272 16.4041 3.87289
709 1 1 16.2559 17.9524 5.55749
1158 1 1 1.8565 0.679708 2.21249
837 1 1 13.9048 16.4676 2.08237
766 1 1 16.5671 0.424839 3.78126
12 1 1 17.7301 17.9797 1.62235
436 1 1 0.887451 17.8372 4.41959
7651 1 1 2.92742 16.983 1.59535
336 1 1 2.6685 0.10575 2.01055
5 1 1 5.56242 0.271205 2.10632
1301 1 1 6.14086 18.2169 1.64694
27 1 1 8.69212 0.26735 3.82546
779 1 1 9.56931 1.19089 1.74972
820 1 1 9.52235 18.7345 2.32606
7628 1 1 9.64629 17.0328 5.6181
7627 1 1 8.66195 0.715483 2.93397
316 1 1 12.6877 18.3411 2.76461
64 1 1 13.7362 15.5154 2.8192
7478 1 1 15.5754 0.241358 2.80642
7872 1 1 14.5857 15.4704 2.19556
7155 1 1 15.2489 17.9239 2.94575
1110 1 1 16.0636 18.2241 3.70131
364 1 1 16.1933 0.943469 2.81719
753 1 1 16.9714 17.6647 2.2973
1954 1 1 0.180425 15.7602 3.22378
843 1 1 3.42439 18.5947 3.92369
853 1 1 3.44958 17.2916 5.63245
292 1 1 5.05848 0.0217076 0.866104
1932 1 1 4.48575 17.9659 2.19266
1260 1 1 1.05057 0.267385 6.44371
772 1 1 4.22683 17.8845 3.90513
452 1 1 5.45042 1.69021 4.45171
861 1 1 5.43067 0.00570588 4.61057
734 1 1 6.13021 2.53496 4.3981
17 1 1 7.67455 1.91631 3.28678
1180 1 1 9.35516 1.44749 4.736
410 1 1 8.50348 18.1188 3.76962
906 1 1 10.9237 1.42118 5.58259
1138 1 1 13.5395 18.7704 3.34375
7984 1 1 13.9237 17.7793 4.24701
26 1 1 12.5682 1.32882 3.65706
792 1 1 14.4332 0.885007 7.25001
949 1 1 16.8354 1.89822 5.30745
433 1 1 15.7482 18.045 1.94442
702 1 1 15.2704 18.6829 5.60322
800 1 1 15.9672 1.49815 3.9275
1640 1 1 17.561 1.72986 2.63876
794 1 1 0.248069 2.14547 4.72982
1160 1 1 1.76248 1.98742 2.05094
1670 1 1 15.7005 1.96835 2.48875
1644 1 1 0.904585 3.23279 3.6956
1637 1 1 18.0662 6.19025 2.6791
913 1 1 2.40371 3.66884 2.04279
1201 1 1 3.18196 2.74436 1.36681
802 1 1 2.28072 0.728706 4.07569
1250 1 1 7.56445 0.427618 2.14838
1130 1 1 8.76186 1.42086 3.80664
863 1 1 7.69902 1.31022 4.26412
854 1 1 9.17836 2.6116 6.49599
810 1 1 8.96775 2.6038 4.77321
71 1 1 11.0392 2.16157 4.74031
1345 1 1 12.116 1.13849 6.54746
7632 1 1 14.3446 2.73039 4.52668
1377 1 1 11.7568 4.46609 4.73657
7779 1 1 11.2779 1.98091 2.18694
151 1 1 13.6563 1.09204 3.29468
1597 1 1 13.9392 3.55611 3.72691
465 1 1 15.1273 1.9849 4.31888
1713 1 1 14.7374 1.20443 1.10282
910 1 1 15.584 3.12953 4.00957
1265 1 1 16.9331 3.31374 4.0458
2432 1 1 17.5584 3.68706 1.90933
2197 1 1 15.3559 4.91131 2.43294
2029 1 1 18.4964 3.16773 1.62611
852 1 1 3.22905 7.44624 1.30838
883 1 1 1.06889 7.69912 4.95131
1241 1 1 0.121277 8.56359 4.90101
450 1 1 1.61544 3.78266 3.00829
7697 1 1 5.54343 2.91022 37.4367
1210 1 1 4.06505 1.64417 3.22356
1206 1 1 5.94078 3.56041 3.98754
7607 1 1 5.13082 2.62634 3.89757
1299 1 1 4.69624 4.02586 3.9873
1181 1 1 6.00014 4.58097 4.21999
104 1 1 4.33283 3.17313 5.64954
7 1 1 9.26842 3.98203 2.46977
971 1 1 9.18034 3.29972 4.16438
588 1 1 11.8555 5.04029 3.53732
862 1 1 12.2368 4.48281 2.67608
427 1 1 13.5618 2.20656 3.70247
1196 1 1 14.6088 2.02604 2.58792
558 1 1 14.5729 3.51686 5.49155
474 1 1 16.7295 3.09761 2.21718
112 1 1 16.8719 2.08975 3.87531
603 1 1 2.71608 4.3959 3.25725
1673 1 1 2.90548 8.31397 5.41705
959 1 1 18.5503 7.51593 2.41811
887 1 1 4.86912 5.34989 3.44403
98 1 1 2.23336 4.99288 2.42676
1280 1 1 3.56402 3.6213 1.95782
767 1 1 3.73293 3.94233 3.6313
1340 1 1 4.93682 3.97294 5.25879
1739 1 1 8.57274 4.0361 1.42747
1310 1 1 8.61453 5.88075 0.904851
938 1 1 10.8452 5.68363 3.72124
1385 1 1 9.8356 2.33768 5.48671
1714 1 1 11.129 7.39477 3.18035
1194 1 1 15.6085 4.38814 0.399
912 1 1 14.5284 2.65007 3.45973
7754 1 1 14.2984 4.56552 2.20395
515 1 1 15.1473 3.99918 3.85404
156 1 1 16.169 3.86713 3.45988
1316 1 1 15.0666 3.85297 2.48047
1033 1 1 15.8038 4.96179 3.63966
120 1 1 1.13799 2.36427 5.37127
1685 1 1 17.814 3.99791 7.01425
486 1 1 0.531103 5.77287 5.21121
966 1 1 3.68234 8.5147 4.59571
884 1 1 1.48102 4.33027 3.89298
848 1 1 2.48384 5.46003 3.3774
1769 1 1 5.88625 5.70547 3.21419
1780 1 1 5.0737 6.93269 5.48955
1373 1 1 6.31033 5.03365 2.1312
975 1 1 5.63647 7.08747 6.31398
1296 1 1 6.12401 7.57903 3.79801
1026 1 1 9.42076 6.48569 0.942548
1331 1 1 7.40158 5.20763 3.89865
1413 1 1 10.216 4.90077 4.23759
555 1 1 9.52432 7.37492 1.58184
1374 1 1 10.1452 5.69729 2.37541
1066 1 1 9.37371 5.93146 3.99479
553 1 1 9.34746 4.62636 3.47814
7712 1 1 10.2108 9.04163 2.90143
509 1 1 13.7895 6.14443 3.5116
1350 1 1 14.0079 8.21129 2.33256
995 1 1 13.2172 5.80199 1.5301
870 1 1 15.8134 8.09799 6.08111
193 1 1 15.8155 7.12519 2.21888
593 1 1 15.6206 8.22478 3.91739
1443 1 1 17.3884 6.84828 3.70223
560 1 1 18.1649 7.34241 4.20531
483 1 1 1.48194 4.88134 3.06576
7721 1 1 17.3475 8.05017 3.64744
489 1 1 1.57628 7.66128 3.80415
531 1 1 3.21069 10.5066 4.06091
1414 1 1 3.38198 9.7639 6.03588
46 1 1 3.76361 9.61555 4.96585
1330 1 1 3.24223 6.65563 2.59195
1041 1 1 4.7848 9.27708 2.99269
936 1 1 3.06495 7.22563 5.86556
580 1 1 4.51358 8.07542 2.66248
180 1 1 6.38307 6.66822 4.59623
1302 1 1 6.55025 5.46764 4.64773
7850 1 1 9.83662 6.86185 5.2164
865 1 1 7.20367 6.93072 7.63171
1017 1 1 9.01524 10.8771 1.867
1308 1 1 8.48976 5.2863 3.89174
628 1 1 13.0538 10.1744 3.18666
606 1 1 12.1582 8.00728 4.04868
108 1 1 14.7669 7.85599 4.83522
1020 1 1 11.3768 8.72476 3.84135
1425 1 1 10.6968 6.78554 6.58183
942 1 1 10.5849 4.82205 5.85709
1037 1 1 15.6144 6.99968 1.05694
1441 1 1 15.2947 7.21783 3.55118
960 1 1 16.9454 7.41667 4.32233
1353 1 1 16.5843 8.35649 2.54074
2357 1 1 17.6394 9.3466 2.06662
997 1 1 16.854 9.27131 2.88416
1757 1 1 16.9518 9.43451 3.85126
1802 1 1 -0.0111714 8.78274 2.62472
315 1 1 1.94261 10.8183 3.27149
1034 1 1 0.489012 8.73054 3.97419
1442 1 1 0.765713 7.00805 4.16683
1322 1 1 1.20136 9.66807 3.94203
1724 1 1 3.61262 9.04579 3.72238
1085 1 1 6.20319 8.72284 3.551
130 1 1 8.24976 7.66358 3.83902
539 1 1 8.04898 7.94711 1.78568
653 1 1 6.87961 8.98911 0.996364
649 1 1 11.3551 7.16447 4.51507
587 1 1 8.48766 8.33493 3.04619
586 1 1 8.24736 8.73828 4.28585
232 1 1 9.38656 7.95732 2.4828
136 1 1 11.7495 9.43642 4.88574
1031 1 1 13.1028 10.4018 37.2686
1065 1 1 9.70393 8.83649 4.41381
1057 1 1 13.5419 4.72507 5.60818
1073 1 1 13.0304 11.5531 1.39712
591 1 1 13.1258 7.73823 1.73228
914 1 1 15.4823 9.29653 4.09561
1395 1 1 14.2359 9.9455 3.91546
7397 1 1 16.0155 9.40607 2.16719
961 1 1 2.95112 10.2973 4.9356
1405 1 1 0.319362 9.82344 3.07521
1403 1 1 18.147 9.40698 3.24341
1410 1 1 2.5321 8.60962 2.86558
1484 1 1 0.028141 11.7118 1.64678
1282 1 1 3.29865 13.4833 1.91239
1820 1 1 4.19419 10.4268 6.1896
1002 1 1 6.93447 10.5912 4.21486
1050 1 1 8.41456 10.306 2.89238
1415 1 1 5.93955 9.55387 4.50208
932 1 1 6.58737 8.26712 4.56361
1091 1 1 6.4534 14.3527 5.95817
610 1 1 8.2746 10.8344 4.8028
1102 1 1 9.8797 12.4705 0.615378
1135 1 1 7.67274 12.3237 2.35384
1822 1 1 10.1681 12.2304 4.41967
622 1 1 11.2944 11.7296 4.80423
993 1 1 14.0156 9.73389 1.41025
1430 1 1 11.8501 10.6073 3.4698
1538 1 1 13.236 11.1563 2.81867
1072 1 1 16.0507 9.97349 1.2852
2234 1 1 16.1135 12.1283 2.59436
1825 1 1 15.0938 12.2205 3.24386
311 1 1 15.6873 8.97687 3.01651
608 1 1 15.1358 13.2936 3.30914
1475 1 1 17.0852 12.113 2.93359
757 1 1 17.8561 12.0209 4.35683
1005 1 1 1.97804 12.0292 1.93597
597 1 1 17.3411 13.0356 5.45316
1444 1 1 3.80726 11.3033 6.66165
1406 1 1 18.7404 13.5163 2.97047
246 1 1 2.50558 14.2267 2.40735
1008 1 1 7.18089 12.9384 4.39247
659 1 1 7.07617 11.478 3.57257
604 1 1 6.29215 9.80964 6.00659
661 1 1 8.12643 9.56845 5.11677
1104 1 1 8.47419 11.0319 6.45222
621 1 1 7.49916 12.564 3.45122
1182 1 1 9.17448 12.3605 3.88237
1983 1 1 9.96074 12.6106 5.43116
1509 1 1 9.54284 11.8265 1.72828
211 1 1 10.4552 11.2556 5.2873
7784 1 1 9.45863 13.4514 4.40661
663 1 1 12.554 12.9871 4.32241
667 1 1 13.5769 12.1418 4.50638
1437 1 1 15.1072 10.433 36.2021
669 1 1 14.2682 10.9672 1.78346
1042 1 1 15.1883 12.6805 5.1313
1030 1 1 17.0102 12.5528 4.50914
1149 1 1 17.2751 13.0449 3.16818
1368 1 1 16.0354 12.5306 3.49736
1880 1 1 17.6747 11.852 6.14088
1007 1 1 1.86839 12.7877 4.7918
755 1 1 1.39005 13.936 3.18447
1163 1 1 3.67165 11.3658 4.37622
686 1 1 3.85716 12.022 2.76337
7900 1 1 5.36521 13.6823 3.90411
1047 1 1 6.4276 13.8132 4.37681
7541 1 1 6.10352 11.4668 4.0962
627 1 1 5.73559 12.6735 4.08012
2343 1 1 7.85145 14.8031 3.43836
225 1 1 10.1707 13.0207 2.2895
1537 1 1 12.2934 15.5956 3.63576
1108 1 1 14.7512 13.3823 2.07938
630 1 1 14.2807 13.7603 5.08252
1070 1 1 9.15234 15.0768 4.34019
715 1 1 14.9628 13.5579 6.22665
305 1 1 13.5065 13.3077 4.02992
1183 1 1 15.8278 15.0698 5.52754
629 1 1 14.6944 14.0927 2.6783
678 1 1 14.4782 13.997 3.69867
1004 1 1 16.069 15.6546 37.3684
1046 1 1 0.117518 13.5989 2.0077
682 1 1 2.30108 17.3668 4.43774
280 1 1 17.8671 14.3522 2.14978
727 1 1 0.976867 14.913 2.41879
1514 1 1 1.87169 16.1743 4.14525
816 1 1 0.419595 15.4182 4.68048
773 1 1 5.65544 14.769 3.8942
1131 1 1 4.75011 15.3087 3.99632
1217 1 1 5.9735 15.5497 4.51726
1453 1 1 5.22011 15.0823 2.43857
1530 1 1 6.29871 15.8997 2.96613
1133 1 1 7.77241 16.0881 3.0199
286 1 1 9.14249 16.2336 2.42548
1531 1 1 6.74333 14.902 5.14146
1170 1 1 8.75548 15.6936 3.58223
737 1 1 9.99678 15.6514 4.75304
1192 1 1 11.1374 16.3911 2.83996
668 1 1 13.3648 16.4551 0.426057
1506 1 1 10.4189 15.2646 2.39526
1059 1 1 13.6227 14.7399 5.37211
672 1 1 12.9742 12.6067 2.96225
1427 1 1 14.7421 15.7817 3.22122
1147 1 1 15.7328 16.4893 5.81014
234 1 1 16.6898 16.3234 2.41891
1596 1 1 15.8666 13.1411 4.29603
310 1 1 0.502609 15.7702 2.00569
759 1 1 16.7678 16.6431 6.54184
2037 1 1 16.1191 14.3634 4.16758
1561 1 1 17.6816 13.9224 3.4823
791 1 1 18.5072 15.211 1.37616
873 1 1 2.40031 15.0011 1.69663
1195 1 1 17.7481 18.2151 5.66613
1233 1 1 1.90078 17.9946 3.01482
1566 1 1 1.73963 17.6653 5.61066
1172 1 1 5.50795 16.2003 2.0041
1129 1 1 3.20086 17.8241 2.37979
340 1 1 5.45412 17.6075 2.23078
1134 1 1 4.48505 18.3505 3.12655
7615 1 1 4.28571 17.2617 4.88403
605 1 1 7.12802 16.7649 3.37059
19 1 1 6.28976 17.0417 2.25471
260 1 1 8.62707 16.8473 3.5345
1064 1 1 9.80302 15.6196 5.92659
783 1 1 9.11474 0.945739 6.60804
1176 1 1 8.59309 14.6785 5.0479
1472 1 1 14.3999 17.0421 5.07075
1226 1 1 11.2746 15.693 4.05468
353 1 1 13.8406 15.893 5.37674
716 1 1 17.8273 18.6788 6.57478
7923 1 1 15.2564 17.4016 6.30851
745 1 1 15.4833 17.4243 5.23369
437 1 1 16.1222 17.2982 2.99731
312 1 1 17.2449 16.8791 3.51482
1999 1 1 17.2803 16.8006 4.59777
443 1 1 18.3477 16.5223 3.88575
412 1 1 1.15577 17.7791 1.75912
1251 1 1 18.7356 17.8525 5.8443
487 1 1 4.70938 15.976 2.58055
815 1 1 4.7634 0.17125 6.486
855 1 1 6.32403 17.9296 4.01435
1140 1 1 5.14359 17.8937 4.59674
7901 1 1 6.39151 17.9596 2.91608
704 1 1 5.90176 17.1341 4.67359
1178 1 1 8.67234 2.53776 0.0798475
417 1 1 10.3622 1.05987 4.09233
468 1 1 8.67002 16.0495 4.9214
1213 1 1 9.55498 18.1526 4.8442
821 1 1 11.753 0.6043 4.32684
1186 1 1 12.0129 16.3848 4.44344
11 1 1 12.8948 18.1003 4.23077
1107 1 1 12.5552 16.4597 3.12716