ITEM: TIMESTEP
2900
ITEM: NUMBER OF ATOMS
8000
ITEM: BOX BOUNDS pp pp pp
0.0000000000000000e+00 1.8820720577620570e+01
0.0000000000000000e+00 1.8820720577620570e+01
0.0000000000000000e+00 3.7641441155241139e+01
ITEM: ATOMS id mass type x y z
761 1 1 1.62983 2.59873 0.320857
7640 1 1 1.39255 2.29224 36.385
7651 1 1 2.85331 17.6395 2.22601
732 1 1 2.86933 16.6763 37.55
408 1 1 2.52563 2.04233 0.0616627
1301 1 1 5.52965 18.1149 2.53747
770 1 1 4.46581 0.329957 1.31869
7701 1 1 6.17735 18.5748 35.8007
377 1 1 9.77641 18.6521 37.5166
7620 1 1 6.14654 0.392474 37.4219
17 1 1 7.78907 1.24497 3.02717
57 1 1 8.12639 1.19452 0.0970981
20 1 1 10.4158 0.229888 36.6176
7984 1 1 12.1336 0.44034 3.32165
26 1 1 12.9444 0.568588 2.55485
746 1 1 13.6371 18.3551 1.19225
511 1 1 14.378 1.30681 1.77393
835 1 1 17.6322 1.42119 1.57248
324 1 1 0.389953 1.57904 2.83996
798 1 1 15.0713 0.371813 2.33503
762 1 1 1.16544 3.68006 37.2331
7639 1 1 2.93813 3.21251 36.1936
50 1 1 4.69453 0.913315 37.5026
41 1 1 3.85355 1.24732 1.5742
37 1 1 3.32045 2.8931 0.174221
6 1 1 4.93748 1.20589 0.96991
376 1 1 5.38442 2.74049 1.86826
7611 1 1 8.89126 4.34709 1.3646
765 1 1 6.71373 3.12982 1.10322
380 1 1 4.75423 2.69078 3.7909
93 1 1 8.42704 1.71268 2.26006
7698 1 1 8.75748 2.83207 1.7672
780 1 1 9.82076 1.6791 37.4543
28 1 1 10.6765 2.90052 0.50267
7627 1 1 9.96449 18.7627 2.40175
422 1 1 10.5576 1.41368 3.08011
425 1 1 10.0606 0.710214 35.2055
65 1 1 13.716 2.02565 0.919671
387 1 1 11.9557 1.87915 1.79749
7626 1 1 9.96769 1.12691 1.95048
79 1 1 14.8165 3.29255 36.9114
786 1 1 16.4656 4.45319 2.51508
7636 1 1 13.4564 4.08182 1.42401
7986 1 1 15.3832 4.82723 1.92128
1196 1 1 14.5478 3.36205 2.98552
109 1 1 15.2612 1.83723 37.6036
439 1 1 0.568025 2.2074 37.3519
402 1 1 18.2841 2.73171 37.1161
77 1 1 16.5363 1.56173 0.0735384
479 1 1 0.11357 2.91183 0.317322
441 1 1 2.01694 5.62358 3.0881
806 1 1 18.4956 3.71671 37.3857
127 1 1 0.602681 5.45277 37.5736
885 1 1 4.43425 3.249 0.283841
368 1 1 5.94016 2.96044 35.3833
96 1 1 4.01047 1.27996 36.4395
533 1 1 6.39545 2.4761 0.264341
137 1 1 7.36677 5.27879 36.2537
143 1 1 9.01957 2.95802 37.2545
461 1 1 9.54124 3.21242 1.13205
7982 1 1 10.4254 3.85925 36.6164
149 1 1 11.5912 4.09445 36.6471
516 1 1 12.7697 2.42021 37.0262
7591 1 1 12.9777 6.91451 37.55
476 1 1 13.35 5.33719 0.812451
506 1 1 14.4693 4.09854 1.5758
7996 1 1 17.2692 2.62609 37.5284
117 1 1 15.0424 4.74334 36.9581
7603 1 1 18.5565 5.39758 0.81078
518 1 1 0.898411 4.31494 36.4725
7359 1 1 15.5045 6.75594 0.372987
481 1 1 0.345767 7.4894 1.9333
808 1 1 18.6345 6.32213 1.46102
49 1 1 4.12118 5.6252 3.87377
573 1 1 5.55106 6.37732 0.190918
169 1 1 1.95824 6.16353 37.1756
456 1 1 4.37679 4.38352 37.349
7697 1 1 4.31319 4.19636 2.4461
7723 1 1 4.84284 4.67415 36.5463
534 1 1 8.73649 6.74566 37.5453
135 1 1 7.84627 4.54721 35.6303
934 1 1 8.82677 4.06775 37.3689
219 1 1 8.16491 4.78681 36.815
1309 1 1 9.96082 4.53609 37.1991
7423 1 1 9.03003 6.28558 0.842591
7672 1 1 10.0909 4.57961 35.9607
581 1 1 10.6632 5.32609 0.199022
538 1 1 11.2954 4.33344 1.70173
547 1 1 12.8077 3.75582 36.6455
72 1 1 13.9729 4.22262 0.444925
7756 1 1 15.71 3.71609 1.0703
80 1 1 15.5233 4.99542 0.815659
110 1 1 13.6473 6.13967 37.1863
760 1 1 17.4444 4.9118 37.1944
559 1 1 18.0038 7.29687 1.13157
159 1 1 0.526465 6.47177 37.2437
125 1 1 0.722839 10.206 35.876
7729 1 1 2.48658 4.09314 36.7017
44 1 1 2.35435 7.84971 37.4431
131 1 1 4.19956 7.95139 2.28266
7700 1 1 5.68241 5.19627 1.24742
94 1 1 6.21865 6.02543 36.8811
7736 1 1 7.67847 5.77934 37.1609
7699 1 1 7.9614 6.48738 0.709172
217 1 1 10.0368 5.67989 2.5165
142 1 1 8.95484 9.12221 1.11135
145 1 1 10.0014 3.48258 37.5682
583 1 1 11.8042 6.83161 37.4576
100 1 1 14.1945 6.74192 36.1458
502 1 1 10.0657 6.39464 0.96053
177 1 1 11.6129 6.71549 1.74232
150 1 1 12.557 4.66935 1.31788
106 1 1 12.4102 4.60646 0.359856
231 1 1 14.0621 6.2903 2.43837
510 1 1 0.147203 8.33768 37.1355
7798 1 1 13.197 6.06822 1.62643
7716 1 1 16.8206 6.07887 37.471
153 1 1 1.93221 8.24594 0.756207
195 1 1 1.04672 7.78607 0.157373
526 1 1 3.69598 7.57695 35.8634
1323 1 1 0.69307 8.82885 0.622938
524 1 1 2.84202 6.94647 0.16722
930 1 1 5.6539 7.1631 37.0686
529 1 1 3.12073 5.23125 37.6385
1401 1 1 6.2116 7.84389 1.71755
138 1 1 6.75523 8.70973 1.06504
176 1 1 5.85375 7.96408 36.0989
1461 1 1 7.74029 8.93745 0.236502
527 1 1 6.76793 6.8024 37.2611
178 1 1 8.47335 9.4846 2.37581
973 1 1 10.4939 6.60761 2.02734
942 1 1 12.5816 8.06637 3.02107
498 1 1 10.6303 7.87902 2.46225
224 1 1 10.0465 5.31645 1.0063
633 1 1 11.1002 6.17184 0.932854
1067 1 1 12.5643 8.05986 1.0054
187 1 1 14.0066 8.44707 36.2014
989 1 1 12.2123 5.73671 0.11151
557 1 1 17.5711 8.22215 37.2939
552 1 1 14.42 8.34433 1.5648
107 1 1 15.5837 6.64894 36.929
7748 1 1 11.3611 8.41401 1.94781
594 1 1 16.457 5.72116 3.13146
7758 1 1 18.0474 8.34059 0.684384
593 1 1 17.0101 6.62743 2.95443
238 1 1 17.2804 9.18789 36.9457
7757 1 1 18.3042 9.76846 37.1151
4 1 1 17.2314 9.54202 0.258651
7769 1 1 3.15077 10.5542 36.1897
925 1 1 5.7027 10.718 1.17525
7808 1 1 5.72734 11.7671 0.794434
7880 1 1 1.772 12.079 37.3537
167 1 1 3.24331 9.41853 35.4939
7734 1 1 8.39434 9.94037 0.549785
216 1 1 8.14915 11.9314 2.54099
7772 1 1 8.05387 8.55461 1.17195
218 1 1 10.6808 9.01057 37.1982
7788 1 1 6.81432 10.9787 36.5064
262 1 1 9.76984 9.89274 36.4596
1109 1 1 9.72914 10.2037 0.520797
585 1 1 14.9046 7.22817 37.4757
578 1 1 12.138 6.64656 0.851562
665 1 1 11.8145 8.77477 0.309424
589 1 1 14.6012 8.14826 36.9818
7432 1 1 12.5921 9.31396 1.12248
230 1 1 15.4874 9.90177 1.08928
634 1 1 15.397 7.53804 0.940933
190 1 1 15.6673 7.77094 37.0583
564 1 1 1.43748 9.61223 1.48913
186 1 1 14.157 7.96119 0.307258
124 1 1 18.6973 9.33091 1.28854
7796 1 1 13.2325 8.46047 37.5393
7714 1 1 16.0061 8.12652 2.20079
207 1 1 4.82071 13.5403 37.3247
7804 1 1 0.647031 11.2904 1.83904
1003 1 1 4.46965 11.0949 2.08026
163 1 1 7.97174 12.1209 36.3615
645 1 1 3.82778 9.38892 0.971969
652 1 1 5.73027 8.84592 36.8124
290 1 1 5.49749 10.6435 37.5707
613 1 1 4.81241 11.6418 1.18518
1006 1 1 7.69352 10.8496 35.9493
1010 1 1 5.56928 13.3693 2.01418
256 1 1 9.52485 11.9869 1.87794
7827 1 1 11.915 9.55984 1.94216
580 1 1 5.61189 8.5876 3.61655
7780 1 1 10.5902 10.6205 1.61352
227 1 1 12.4902 10.1648 36.416
7784 1 1 12.4184 12.9249 4.15199
308 1 1 13.8869 10.4624 1.37652
982 1 1 12.6141 12.7471 0.823995
626 1 1 14.0075 9.46637 2.22501
7428 1 1 12.3428 11.0935 37.4156
200 1 1 17.2428 8.96799 2.69508
233 1 1 3.30478 11.1809 2.36649
7879 1 1 0.177495 9.91787 0.426787
7835 1 1 2.62095 12.9579 0.0895774
204 1 1 18.6877 13.3058 0.704984
962 1 1 17.6435 11.4405 0.0152157
7968 1 1 1.2227 12.9717 36.6477
337 1 1 5.64452 12.9864 3.21131
7856 1 1 8.44742 13.251 1.94721
7811 1 1 7.9714 12.8402 37.3571
7541 1 1 8.11083 12.6387 3.36972
261 1 1 12.0783 11.2563 2.38377
7468 1 1 9.16253 11.3151 37.1352
705 1 1 10.9668 12.608 1.4806
7829 1 1 12.8362 13.5258 2.0348
301 1 1 11.4185 10.5789 36.4413
7868 1 1 12.9655 12.4348 36.5581
268 1 1 13.2224 11.5211 37.2991
595 1 1 15.3693 12.4745 36.4654
639 1 1 15.9964 12.9648 37.2986
1040 1 1 17.2085 12.4004 0.525099
393 1 1 17.3726 10.234 37.0146
7924 1 1 18.0148 13.3598 1.49974
397 1 1 18.1166 14.4805 0.82696
7442 1 1 1.2746 13.1215 2.24447
358 1 1 2.49654 12.8456 2.0144
7525 1 1 18.52 12.0107 37.5771
730 1 1 5.18153 15.3643 34.7248
288 1 1 3.63853 13.345 2.48228
725 1 1 4.17918 10.39 37.1358
1532 1 1 6.19099 11.6783 2.97732
333 1 1 9.31345 10.7666 1.46777
344 1 1 8.1564 14.1075 37.5849
697 1 1 8.97782 13.4694 0.665995
660 1 1 9.37853 12.586 0.835196
264 1 1 9.03801 14.679 0.13117
655 1 1 10.5914 16.9102 1.49729
257 1 1 11.8945 12.0198 1.31358
7864 1 1 11.3531 13.7855 1.99061
379 1 1 12.9866 13.8297 0.98499
747 1 1 14.0682 13.9307 0.788161
676 1 1 13.1543 13.1917 0.0975893
666 1 1 13.5591 14.5917 37.4799
675 1 1 13.2108 16.7806 0.701328
7876 1 1 15.823 15.6924 0.06317
278 1 1 15.3166 14.0715 1.94161
7440 1 1 14.9965 14.24 37.3039
758 1 1 18.6359 14.4143 1.76819
7888 1 1 3.72649 15.1457 0.71989
776 1 1 3.12119 14.6184 35.701
300 1 1 4.17419 11.2059 36.4497
370 1 1 4.45193 15.887 1.70752
721 1 1 4.07299 17.5606 37.5201
1173 1 1 4.22663 14.5532 37.0052
1573 1 1 8.1598 13.8197 1.10043
7901 1 1 7.64432 16.8703 2.99893
7937 1 1 8.07556 15.1712 0.366067
259 1 1 9.45401 13.4393 1.62809
700 1 1 7.5578 15.028 1.40106
21 1 1 10.0571 16.0088 35.927
373 1 1 9.01892 14.8461 1.28429
391 1 1 12.09 16.8439 37.4162
258 1 1 9.87837 17.1333 35.7075
1145 1 1 9.85116 15.1396 0.631489
7543 1 1 11.1883 15.2879 1.07019
7914 1 1 14.7334 18.2177 3.56178
706 1 1 12.7162 15.4578 37.068
670 1 1 15.0005 15.3967 1.89543
745 1 1 15.9889 16.6579 2.77191
305 1 1 14.5178 13.6534 2.79801
7561 1 1 16.1239 13.9707 37.59
793 1 1 18.3355 16.8494 0.127659
7635 1 1 0.0402984 18.2701 0.666797
753 1 1 18.2115 18.0077 2.3482
438 1 1 0.781918 17.1902 37.3563
7887 1 1 0.446701 17.1368 1.10453
399 1 1 0.176367 16.9955 2.19786
1125 1 1 2.91939 16.0552 1.10194
327 1 1 4.45126 15.4086 37.5843
7573 1 1 5.00997 16.6567 2.32765
85 1 1 4.70668 16.7081 0.504591
7971 1 1 3.34914 18.0258 1.05662
7615 1 1 5.82186 15.5971 4.74191
340 1 1 5.86798 17.2105 3.7314
51 1 1 6.10595 15.2338 37.5227
385 1 1 7.63778 0.751176 2.01254
388 1 1 10.0888 16.7902 36.7683
381 1 1 8.69237 17.7182 1.604
304 1 1 10.8634 17.0618 37.4421
7983 1 1 10.3298 16.1741 0.0932383
784 1 1 13.2026 0.432869 1.65778
792 1 1 13.0351 18.768 3.75213
353 1 1 14.14 16.78 2.46124
752 1 1 17.6778 18.274 1.25535
6720 1 1 16.8166 17.311 2.90064
7478 1 1 13.7964 17.6682 2.73614
789 1 1 17.0606 18.5249 3.14699
795 1 1 17.6085 17.5181 3.84632
40 1 1 0.72502 0.277267 2.98063
319 1 1 2.25687 0.994818 0.689583
754 1 1 17.5548 17.7275 0.265054
7608 1 1 1.55095 1.88226 1.11923
731 1 1 2.72452 17.987 0.219773
405 1 1 1.62537 1.74966 37.2675
321 1 1 2.16659 1.77205 1.91268
363 1 1 5.48462 17.7601 0.252269
7215 1 1 3.71683 0.682433 0.650155
7610 1 1 6.02432 17.5522 1.3974
60 1 1 6.40806 16.9954 0.665858
29 1 1 6.43535 16.5766 1.78368
744 1 1 9.74311 0.747292 4.7328
1144 1 1 7.5989 17.5661 36.7828
67 1 1 8.65304 0.0905993 0.204553
824 1 1 10.9134 1.4493 1.30572
785 1 1 11.553 0.242085 1.36065
829 1 1 10.9332 18.771 0.354742
389 1 1 13.9641 0.118847 2.24754
874 1 1 12.9185 0.842632 37.4168
429 1 1 10.5347 2.27669 37.1369
396 1 1 14.0687 1.19621 37.3566
356 1 1 17.893 0.790539 0.46688
33 1 1 18.5844 0.186802 1.39619
477 1 1 0.271194 0.0763421 36.8244
437 1 1 17.2238 16.5121 3.83774
47 1 1 2.79506 1.89104 2.91186
12 1 1 1.59581 17.4362 1.73696
362 1 1 1.41044 2.21127 2.61038
889 1 1 3.23064 2.61594 1.88931
409 1 1 2.78148 18.1906 4.71796
504 1 1 6.03942 3.58871 3.39182
336 1 1 4.47091 18.1845 2.24086
1122 1 1 3.65785 1.50151 3.59032
7616 1 1 6.49216 3.21038 2.23766
774 1 1 6.32799 0.0445878 2.01581
779 1 1 7.13415 17.1582 1.35826
416 1 1 7.37388 0.202046 0.325734
818 1 1 11.042 0.482421 2.13822
97 1 1 12.6352 0.3202 5.16048
820 1 1 9.86311 17.6113 1.93701
63 1 1 10.9942 0.567705 5.09416
71 1 1 11.3747 1.64161 2.5364
7632 1 1 12.3786 2.38755 3.35715
827 1 1 13.1776 1.73847 4.85227
431 1 1 15.3576 2.67902 1.05364
834 1 1 18.6737 1.73268 0.206782
949 1 1 14.1013 0.403338 3.23245
833 1 1 17.6144 0.443131 2.09171
436 1 1 1.73848 18.3929 2.54903
729 1 1 1.22771 4.58446 37.5632
852 1 1 1.04772 3.59792 2.77147
491 1 1 4.7018 2.20144 2.61838
7628 1 1 8.84727 18.4875 2.21191
14 1 1 7.66497 3.7405 1.38917
417 1 1 8.94307 18.6904 3.37407
15 1 1 9.39493 0.859765 0.599645
937 1 1 8.92048 1.16421 1.47764
426 1 1 11.9481 1.30472 4.58307
876 1 1 13.2404 2.32082 2.85865
838 1 1 11.2699 2.14494 0.646701
68 1 1 13.9807 4.46892 2.8503
517 1 1 16.6854 4.64609 0.884611
480 1 1 16.5751 3.2098 2.23528
474 1 1 15.9689 3.48105 3.49749
917 1 1 0.433273 1.27757 0.891696
881 1 1 15.997 6.52963 2.00169
879 1 1 17.632 3.49914 36.7545
440 1 1 2.49666 5.16909 1.81253
933 1 1 3.34205 3.79021 37.48
89 1 1 4.66086 2.06252 1.48965
497 1 1 6.2938 5.66613 0.483567
935 1 1 4.93052 2.24984 0.373144
900 1 1 5.65333 3.02682 0.715516
98 1 1 4.41166 5.28615 2.50046
7 1 1 8.9482 2.59799 2.85767
494 1 1 7.97786 3.77827 0.262416
102 1 1 8.09161 4.90496 0.822071
500 1 1 9.38046 3.49626 2.32669
897 1 1 9.44396 2.34858 0.567661
470 1 1 10.7824 2.65885 3.1344
505 1 1 12.6508 3.59399 0.471709
508 1 1 11.3392 3.98644 0.302886
869 1 1 12.5175 2.76513 2.27786
909 1 1 11.5368 5.53276 1.73273
1194 1 1 14.0272 6.02506 3.52863
39 1 1 13.7505 3.11331 0.803494
151 1 1 13.7117 1.36229 2.49595
515 1 1 15.5609 4.30623 3.17116
155 1 1 17.2461 3.82617 1.50295
1713 1 1 15.728 2.67534 2.86663
115 1 1 16.5115 1.79245 2.51581
478 1 1 17.328 2.50666 1.43398
1358 1 1 17.4573 3.61307 0.157843
519 1 1 18.8238 5.1058 2.20052
523 1 1 1.37377 4.82294 2.33314
82 1 1 0.319123 3.62786 1.75692
88 1 1 1.3266 6.14068 0.170312
10 1 1 4.22552 6.70514 1.28477
1290 1 1 3.60311 5.03837 2.02997
899 1 1 0.30039 2.51848 2.49271
53 1 1 5.17956 6.08267 2.18191
575 1 1 7.27653 5.27656 0.352997
179 1 1 6.92031 5.6028 4.35343
1337 1 1 5.15316 3.81597 1.82786
945 1 1 7.59522 4.7063 2.43247
1019 1 1 7.89122 7.15047 2.7164
134 1 1 12.3951 4.88607 2.47731
139 1 1 10.8166 3.28178 1.5612
908 1 1 10.4709 2.27232 1.8773
462 1 1 9.87201 5.87661 37.5359
473 1 1 11.523 2.72656 1.99565
556 1 1 12.3993 3.4614 1.50206
1270 1 1 11.7449 3.11458 0.860767
554 1 1 16.1954 5.70658 1.28689
546 1 1 14.2822 7.38388 3.05993
1316 1 1 16.4737 4.39227 4.32867
120 1 1 17.4765 4.70344 3.27835
7718 1 1 2.42792 6.08764 2.18641
446 1 1 6.09986 7.57348 0.532173
1282 1 1 2.91114 11.5671 3.51541
92 1 1 4.44527 8.69658 0.222766
1327 1 1 8.69866 7.64532 2.0569
570 1 1 8.75247 5.48987 37.5282
7735 1 1 5.34079 5.13185 37.3745
171 1 1 5.9332 6.90333 2.07311
460 1 1 11.0816 4.36889 2.75137
91 1 1 8.08041 6.51611 1.7762
536 1 1 8.36601 10.8596 0.935702
1026 1 1 9.43398 6.93164 3.12764
1774 1 1 6.38313 5.88545 2.46309
7712 1 1 11.3213 6.1135 2.5357
7751 1 1 10.6304 9.80996 1.03555
588 1 1 11.9857 4.25093 3.41613
146 1 1 12.23 5.67189 1.02803
108 1 1 12.3272 8.60607 3.8981
113 1 1 15.5463 3.607 2.21662
1000 1 1 13.9117 7.43818 1.70393
1317 1 1 16.0401 7.09486 4.64646
196 1 1 15.1184 7.26735 2.13697
7721 1 1 0.121417 7.59562 3.14531
550 1 1 17.6669 6.3354 1.754
444 1 1 1.74579 7.01322 0.600696
483 1 1 18.3694 6.02 3.57218
202 1 1 1.72805 11.1201 2.16962
1366 1 1 3.64502 10.1391 2.07715
485 1 1 3.22468 6.05025 1.1852
974 1 1 3.50625 8.2104 7.03634
445 1 1 5.31764 6.78641 1.14045
532 1 1 6.81984 5.77242 1.46263
607 1 1 7.69236 7.58162 1.75262
970 1 1 7.9778 8.95705 36.6195
215 1 1 5.92954 9.35761 1.44948
7817 1 1 8.20513 10.4821 2.16573
983 1 1 6.36327 8.42145 37.6064
628 1 1 10.6914 8.01761 4.27493
1062 1 1 14.0239 7.33292 5.09316
140 1 1 9.96662 8.74298 0.957877
596 1 1 15.0851 8.22192 5.68889
1033 1 1 15.636 6.14385 3.8684
591 1 1 15.2248 9.26032 3.32599
997 1 1 17.0503 8.09087 3.89419
7684 1 1 1.28465 8.33454 2.79009
191 1 1 18.2224 8.39047 1.85549
239 1 1 0.521996 10.4834 1.14225
1329 1 1 0.336442 7.97715 1.07407
1041 1 1 4.53183 8.93177 3.06508
164 1 1 5.43328 9.01903 2.60243
637 1 1 3.09546 7.46252 1.17911
566 1 1 5.69998 10.8244 2.5791
208 1 1 4.79232 9.03599 5.09544
932 1 1 5.73343 10.4449 4.03492
647 1 1 6.72415 8.79838 2.24058
611 1 1 4.91494 7.12495 2.24767
615 1 1 8.77056 11.1667 2.75221
180 1 1 7.80805 9.06178 3.57021
976 1 1 10.2331 11.5468 1.27126
579 1 1 9.74958 7.40598 2.18935
1020 1 1 11.5673 8.22186 3.08051
1023 1 1 12.4847 8.52766 2.1105
188 1 1 13.4706 8.74331 1.4319
632 1 1 13.3816 8.8151 4.11534
276 1 1 14.5932 9.19232 0.798489
958 1 1 14.8712 8.43317 2.63532
1802 1 1 0.483276 8.79788 3.5797
315 1 1 1.01499 9.80178 3.51476
357 1 1 4.47128 10.4615 3.01103
998 1 1 2.058 11.1908 5.39022
567 1 1 6.1391 13.0334 0.868128
7847 1 1 4.47503 10.3091 0.925271
687 1 1 6.81774 11.6417 1.51884
691 1 1 8.3008 12.2044 1.52355
574 1 1 6.50491 13.1239 2.73951
1061 1 1 7.50146 11.3687 3.19188
618 1 1 10.4418 10.0818 37.3584
651 1 1 8.1666 9.68334 4.30527
1063 1 1 10.3677 10.9213 0.468339
1105 1 1 9.57614 9.33376 2.67105
269 1 1 13.0621 11.2735 2.06552
1031 1 1 12.5533 9.15682 3.03879
1076 1 1 12.5728 10.2544 2.07987
636 1 1 16.5753 8.84803 1.1439
600 1 1 14.9415 10.7696 2.18529
240 1 1 16.5752 10.5613 1.91324
7838 1 1 15.9804 11.3605 2.77991
677 1 1 18.1572 11.8195 1.05413
241 1 1 0.972106 10.2765 2.19335
7841 1 1 4.62313 9.78173 1.88762
1048 1 1 2.51471 10.0255 0.800455
7928 1 1 2.62286 11.6508 1.46153
1050 1 1 5.05983 11.4242 3.24364
252 1 1 5.87869 13.2015 4.84856
7900 1 1 5.56759 14.1073 2.70777
339 1 1 5.73203 13.8955 3.85042
622 1 1 11.6405 11.0942 3.61517
614 1 1 11.3723 10.4867 2.20206
668 1 1 12.1001 14.3069 3.32913
7903 1 1 13.3935 11.7139 1.22064
667 1 1 13.4882 12.0592 2.79058
1509 1 1 11.2851 12.0669 3.79889
638 1 1 12.3659 12.1397 37.6413
592 1 1 14.4973 11.7822 2.30722
273 1 1 14.4288 11.9704 1.15918
277 1 1 13.7389 13.5867 2.04186
271 1 1 14.8219 13.2229 1.87558
1078 1 1 15.9371 11.6859 0.645201
281 1 1 18.0577 10.4793 0.180182
1035 1 1 17.0491 13.0181 1.68391
7840 1 1 15.5791 11.9044 1.91713
7995 1 1 17.4658 14.1595 3.88904
1154 1 1 0.990684 12.2132 0.344684
7482 1 1 1.48626 14.2727 2.35645
365 1 1 3.96875 12.2603 0.219091
685 1 1 2.48294 13.9889 2.05147
7921 1 1 1.07499 12.3878 1.49994
1081 1 1 4.76367 13.456 2.70297
287 1 1 5.58075 13.8686 0.302701
696 1 1 6.51712 13.8839 1.79871
341 1 1 8.75576 14.5163 2.39885
627 1 1 8.04159 14.2765 3.58203
740 1 1 7.47767 13.772 2.47768
1098 1 1 5.61503 12.3321 1.81089
254 1 1 11.4225 12.5419 2.41797
694 1 1 11.1976 11.4332 2.04204
1102 1 1 10.4054 11.8064 4.20175
1108 1 1 12.5003 13.3984 3.14935
7913 1 1 13.2534 16.561 2.06036
1069 1 1 12.4203 12.2513 2.39217
674 1 1 15.166 13.3892 0.559835
7925 1 1 16.7386 13.3391 0.641818
7834 1 1 14.1595 12.6653 0.393261
317 1 1 13.5242 14.0117 3.25092
234 1 1 16.2315 15.1761 3.33879
435 1 1 15.9336 14.2796 4.38753
7844 1 1 17.1443 14.2454 1.15067
325 1 1 2.67126 15.2908 2.8184
757 1 1 0.737808 13.4124 3.28669
1007 1 1 0.906965 13.7432 4.45098
751 1 1 2.10874 16.3531 36.8684
1128 1 1 3.08766 15.7693 37.5221
330 1 1 3.2698 15.9244 2.26348
648 1 1 2.39896 14.8564 0.636584
690 1 1 8.39662 16.7586 1.41242
342 1 1 6.91771 14.0281 0.782633
658 1 1 12.5179 14.8076 0.709074
1506 1 1 10.8615 14.948 3.85889
742 1 1 11.1803 17.528 0.855585
662 1 1 11.3306 14.918 2.56389
1142 1 1 12.3412 15.9489 2.62588
743 1 1 8.94993 15.8209 0.0767881
298 1 1 12.5663 17.6123 3.25731
272 1 1 11.6753 15.6531 4.30226
306 1 1 14.7809 15.7195 0.889579
1146 1 1 15.7889 17.877 3.33437
699 1 1 14.0709 15.8017 2.11499
709 1 1 16.0658 17.6178 1.90766
749 1 1 15.7725 15.514 1.17616
713 1 1 16.4221 12.8772 4.92237
351 1 1 17.3398 15.985 0.92292
312 1 1 18.4537 16.9225 3.3168
7870 1 1 16.9207 16.1894 2.7305
318 1 1 1.99293 17.2914 37.4499
1199 1 1 0.655346 15.3966 2.07998
404 1 1 1.2574 14.6374 0.806688
1529 1 1 2.03974 14.8194 1.61729
773 1 1 2.67696 15.2041 3.92846
771 1 1 3.71747 16.7007 1.01053
1531 1 1 7.36599 15.5842 3.89285
1134 1 1 5.26583 16.4669 3.26253
343 1 1 6.73325 0.527538 1.02873
375 1 1 10.7479 15.6602 36.9139
1176 1 1 10.5174 15.8725 2.80995
704 1 1 8.12285 18.0805 3.75917
698 1 1 9.30023 16.6178 0.966346
346 1 1 10.7571 18.3426 1.55941
64 1 1 13.2272 17.5796 1.62717
702 1 1 16.0774 0.0270607 4.75067
1143 1 1 12.4599 1.60222 2.73726
1106 1 1 15.5863 1.20471 1.72252
394 1 1 16.9592 15.182 1.70449
1158 1 1 16.1936 16.2649 1.74501
433 1 1 15.6759 0.119238 3.32595
728 1 1 16.7065 16.6547 4.94647
1149 1 1 0.0180933 12.8934 3.7434
769 1 1 1.4307 15.6605 1.34106
682 1 1 1.02335 15.4355 3.52823
766 1 1 0.820012 18.3242 1.92726
1172 1 1 4.32443 16.8795 3.7223
7972 1 1 1.85247 18.4723 0.153181
1168 1 1 5.27312 0.571712 2.32239
777 1 1 6.04114 17.0632 2.61823
1130 1 1 6.88563 1.36022 3.66068
855 1 1 7.19373 17.5416 4.02411
1180 1 1 7.46977 0.31836 3.92368
19 1 1 8.61659 17.6552 2.80833
11 1 1 10.8882 18.2727 2.76896
468 1 1 9.42556 17.798 3.68732
386 1 1 13.5403 18.3332 5.05983
783 1 1 10.3736 17.0041 3.53097
831 1 1 14.7823 1.52638 4.80809
867 1 1 14.8551 0.734623 3.97972
790 1 1 12.945 17.4745 4.38326
800 1 1 16.947 0.93759 3.06741
796 1 1 1.25936 0.755271 4.44786
794 1 1 17.6225 0.340997 3.90836
1238 1 1 0.0124886 17.9004 3.22239
873 1 1 1.26987 16.3467 2.74136
43 1 1 2.61092 0.472268 4.95868
843 1 1 2.0137 0.158661 4.12418
443 1 1 0.900007 17.6819 2.73512
487 1 1 4.70612 17.5737 3.15459
292 1 1 4.20358 0.367172 2.79063
772 1 1 5.3445 0.0118626 3.39458
1181 1 1 8.10092 3.51922 3.59435
863 1 1 7.53766 2.29987 3.41624
861 1 1 7.05657 0.318817 2.92726
821 1 1 10.5198 18.4511 3.96238
872 1 1 12.2439 3.76388 5.93048
466 1 1 11.3495 0.261091 5.99389
828 1 1 12.6909 3.37244 7.2074
1188 1 1 14.9636 3.57173 5.08555
1341 1 1 13.1147 18.6338 6.3496
30 1 1 12.9699 1.9428 1.77431
1272 1 1 14.7302 1.22807 2.85737
1597 1 1 14.4353 2.31567 2.7778
799 1 1 16.0666 1.16488 4.17188
1634 1 1 17.0524 1.05994 4.56348
35 1 1 18.608 0.868113 3.57682
442 1 1 18.1016 3.43213 0.864441
764 1 1 2.22336 0.843253 2.37209
1201 1 1 2.32643 1.74299 3.97361
857 1 1 3.96596 1.85795 0.685871
849 1 1 2.96041 1.75091 1.03897
767 1 1 5.20639 4.25284 3.0402
455 1 1 6.6959 4.44362 1.67521
7220 1 1 7.67441 1.93291 4.35966
850 1 1 8.70862 0.605005 2.57627
854 1 1 9.18162 1.47998 2.9648
810 1 1 8.65418 1.66664 3.87754
1138 1 1 11.2996 0.861329 3.79995
410 1 1 8.45491 0.716289 3.66367
1178 1 1 7.9668 18.7188 2.95827
469 1 1 11.1245 1.66261 5.294
1630 1 1 10.4882 1.36109 4.28611
1273 1 1 14.5764 4.477 5.16745
32 1 1 15.0899 2.29087 1.92051
1197 1 1 18.1997 1.06462 5.32833
1315 1 1 17.388 4.9255 2.17239
157 1 1 18.415 1.18001 2.23637
841 1 1 1.07502 3.50259 0.540817
521 1 1 3.90674 2.87084 1.18382
848 1 1 2.92166 5.86284 4.10193
1359 1 1 0.991692 3.15155 4.68316
87 1 1 1.4672 4.24338 1.34412
846 1 1 3.32898 1.37451 5.2322
887 1 1 2.66259 4.28188 3.93847
1256 1 1 7.16404 4.63996 6.61381
1210 1 1 4.5848 3.18473 2.54727
894 1 1 3.22746 4.73206 4.93114
860 1 1 5.25265 2.91991 5.46494
1255 1 1 6.97557 3.15879 3.32046
814 1 1 8.68077 4.36594 2.42016
1345 1 1 9.92226 1.9429 3.63355
1340 1 1 6.90258 4.63044 4.0869
1377 1 1 10.8244 2.46737 4.15811
420 1 1 12.9043 3.9149 2.43742
912 1 1 14.4045 4.98194 4.04017
471 1 1 14.0012 5.41105 1.65235
514 1 1 16.1137 2.27665 1.6746
156 1 1 15.4929 4.55468 4.26363
910 1 1 14.9557 1.89118 3.78002
1669 1 1 14.639 2.73116 4.23336
801 1 1 17.5931 3.8397 4.51812
1675 1 1 17.3589 2.38522 2.62283
448 1 1 2.46689 18.7599 1.75175
918 1 1 18.3673 4.21193 7.63104
1200 1 1 0.170436 2.19594 5.04557
525 1 1 18.174 5.34061 5.61424
1797 1 1 1.63471 3.77299 6.22727
1242 1 1 1.9685 3.94643 5.11385
1605 1 1 5.8123 4.87844 3.75846
454 1 1 3.22682 4.17641 2.7413
1733 1 1 2.94063 6.14366 5.02925
1254 1 1 6.33452 4.36399 2.60667
1295 1 1 8.74426 5.56937 1.68753
1384 1 1 7.50357 4.26406 5.28427
537 1 1 9.5522 4.40481 0.541795
939 1 1 8.4283 4.23266 4.29105
7779 1 1 11.6782 3.02588 3.9949
544 1 1 14.6375 7.86529 4.43306
870 1 1 15.2114 6.95673 3.84239
509 1 1 12.0966 6.21519 4.45485
34 1 1 13.7432 3.04016 1.83637
558 1 1 14.7778 3.95864 3.85435
960 1 1 17.2352 6.90853 4.00421
520 1 1 18.2944 4.45458 1.34435
488 1 1 2.1649 3.59997 1.73829
880 1 1 0.595448 7.72208 4.11558
522 1 1 0.22805 6.53044 2.58382
922 1 1 0.898707 5.64196 2.63649
1285 1 1 0.819122 6.06417 1.38827
999 1 1 0.699901 6.89664 0.646416
486 1 1 0.344435 6.69581 3.97457
489 1 1 1.15256 6.51206 3.07703
886 1 1 3.80013 6.24677 2.46607
966 1 1 2.50072 6.80065 3.50331
924 1 1 1.67474 6.17893 5.86496
936 1 1 4.5566 7.80422 3.74781
99 1 1 6.4206 6.57567 1.05674
1780 1 1 5.22696 6.61343 4.15913
1739 1 1 9.34044 5.44998 3.37272
1331 1 1 7.4293 6.53299 3.77162
971 1 1 10.1795 4.20256 3.45153
938 1 1 11.5223 5.20195 3.09444
1338 1 1 10.3489 3.37048 4.07925
623 1 1 10.4005 4.1016 1.11893
944 1 1 13.3228 5.55721 2.52671
551 1 1 12.4557 6.29543 2.31364
152 1 1 11.3944 4.77858 0.83386
7754 1 1 13.0676 4.88422 3.38314
512 1 1 14.1923 6.38291 5.80009
878 1 1 15.2032 6.53878 4.93384
112 1 1 17.1476 3.76644 3.28956
920 1 1 16.041 5.85137 6.34327
1396 1 1 17.3082 6.49928 0.739593
1793 1 1 17.432 4.94821 4.9162
1443 1 1 17.4211 5.89547 3.70717
603 1 1 0.852413 6.00037 5.25325
1365 1 1 3.11743 10.8251 1.40817
531 1 1 3.24338 9.30106 3.9296
1369 1 1 4.03706 7.53553 0.663955
1409 1 1 2.19929 7.23416 1.96578
209 1 1 4.49859 5.5502 1.44042
90 1 1 4.48253 6.6848 3.16786
1045 1 1 3.20669 8.38217 1.83451
649 1 1 9.5512 8.7758 4.24278
7850 1 1 8.00803 8.23502 2.80824
492 1 1 7.84867 8.32498 5.40436
1373 1 1 5.06714 5.67795 3.36607
530 1 1 7.10471 6.67066 1.95063
975 1 1 6.34364 7.18367 4.13002
584 1 1 10.722 11.6947 5.54435
1421 1 1 7.33854 10.0345 5.32202
978 1 1 10.0545 4.33231 2.09483
555 1 1 9.91956 6.50671 4.35274
586 1 1 10.6458 9.24592 4.49566
587 1 1 9.34178 9.83798 4.72738
232 1 1 10.1013 9.47476 3.6414
1036 1 1 12.685 7.47887 2.01273
979 1 1 15.0005 5.1491 2.89755
193 1 1 15.0768 6.27616 2.93192
956 1 1 13.4543 7.48781 3.7566
1314 1 1 17.2569 8.24025 1.60649
1071 1 1 18.1782 7.67444 4.10597
563 1 1 16.122 9.07605 2.82735
1005 1 1 0.98412 11.4137 3.88953
1439 1 1 1.32352 10.4517 4.48688
1053 1 1 2.20936 10.2602 2.21799
1051 1 1 7.17137 9.00169 4.82918
572 1 1 5.30086 9.12394 6.01828
1420 1 1 6.7046 10.1329 1.58215
1015 1 1 6.36966 11.1949 5.18551
1017 1 1 9.34357 7.89565 3.18077
136 1 1 11.0416 9.90821 3.30098
1021 1 1 8.1396 10.7231 4.74987
985 1 1 11.4801 10.4143 4.35344
539 1 1 8.84933 9.53294 3.37552
1066 1 1 11.3295 7.15985 3.31911
993 1 1 14.2835 9.36972 3.81085
640 1 1 13.7514 7.57354 37.17
1434 1 1 15.4917 9.68007 5.78639
1073 1 1 13.4256 9.76154 3.04756
1038 1 1 18.1108 6.88913 2.49097
1037 1 1 14.4093 8.43499 3.56664
1012 1 1 4.47889 10.0469 4.03355
597 1 1 18.6713 11.3624 4.22996
1444 1 1 2.37921 12.522 3.06487
1405 1 1 1.42862 10.8649 3.20983
1085 1 1 5.40915 9.61479 3.42893
1415 1 1 5.27873 11.3109 4.26018
653 1 1 7.09616 10.0202 2.53642
1334 1 1 5.52027 6.63539 3.0631
650 1 1 5.77646 12.0174 5.02791
606 1 1 10.5064 8.55697 3.34074
659 1 1 6.82336 12.5222 3.5994
1462 1 1 9.96646 10.6049 6.17836
707 1 1 8.33048 11.5613 5.34541
916 1 1 13.8614 10.6474 2.35692
1065 1 1 12.6583 10.3989 4.0861
1547 1 1 13.8052 10.2143 37.2352
1429 1 1 13.5075 8.14491 2.33007
311 1 1 17.0369 10.2903 3.82888
1437 1 1 15.5027 12.2477 3.16254
1034 1 1 18.7616 10.0169 3.12904
197 1 1 1.86429 9.22781 0.367024
7843 1 1 4.09711 11.6929 3.18706
1368 1 1 18.5529 12.127 3.14721
242 1 1 0.43062 12.1327 2.50806
968 1 1 1.47025 12.2004 2.5059
1406 1 1 2.85352 12.9004 4.43596
604 1 1 5.78923 12.4085 4.02267
246 1 1 3.75961 12.1224 4.01363
1008 1 1 4.58857 12.9304 4.11216
612 1 1 7.8392 16.5438 4.54221
661 1 1 8.34546 11.5956 3.82882
225 1 1 10.5684 12.8545 3.55037
7862 1 1 9.62854 10.3635 3.19789
621 1 1 9.27308 12.3668 3.58648
1465 1 1 9.62484 11.9129 4.89862
663 1 1 12.5917 12.0322 3.35456
630 1 1 13.3673 12.7446 3.44286
1070 1 1 13.5199 13.4974 4.27708
1074 1 1 13.7771 12.4868 1.8678
669 1 1 15.077 11.7339 4.51932
1474 1 1 16.694 13.7114 2.45021
1001 1 1 16.6956 11.6587 1.89466
270 1 1 18.2431 11.5382 2.32241
243 1 1 3.02302 14.2946 2.89283
286 1 1 6.16594 14.4048 4.69382
678 1 1 16.4996 13.5633 3.60212
686 1 1 3.69145 13.6879 3.91213
1453 1 1 4.59553 14.441 2.78834
1136 1 1 4.06021 14.1514 1.66372
1446 1 1 4.5979 14.4027 4.63706
605 1 1 6.82548 16.3625 3.57542
1047 1 1 7.42103 13.4744 3.66118
1090 1 1 9.20999 16.4772 3.3923
7823 1 1 7.45253 11.8859 4.40164
1104 1 1 7.64449 12.9205 4.55077
1533 1 1 10.2119 14.9343 1.97732
1537 1 1 10.1656 13.8516 4.34613
664 1 1 8.60318 13.8338 4.29269
1114 1 1 11.6932 16.6731 1.7041
711 1 1 9.97786 14.9423 5.48948
1501 1 1 12.1069 14.7655 4.26901
1505 1 1 10.8157 14.5734 4.96879
602 1 1 12.0424 14.6356 1.59882
672 1 1 14.4606 14.3549 3.46223
1151 1 1 13.09 14.9805 2.19117
1472 1 1 13.4967 16.3369 4.65379
715 1 1 14.3663 13.0168 3.6003
1115 1 1 14.5493 12.9021 5.46503
590 1 1 16.2827 14.7023 2.33454
1042 1 1 15.7817 12.5461 4.11207
720 1 1 18.202 12.5795 2.37058
683 1 1 16.027 14.5428 1.08464
1163 1 1 2.07947 13.6084 3.07113
1046 1 1 18.0615 13.4703 3.2578
332 1 1 5.846 15.6839 1.88516
1131 1 1 3.73012 14.9035 3.56158
411 1 1 5.16429 14.7595 1.81869
1530 1 1 5.6738 14.9746 3.37664
1170 1 1 8.30948 15.3158 3.06292
737 1 1 9.55971 15.4087 2.67747
260 1 1 8.98446 16.9908 4.41206
1127 1 1 7.83434 15.5728 5.00905
736 1 1 9.78599 16.3504 2.03544
1139 1 1 10.8357 15.5754 5.94427
1107 1 1 12.1227 16.712 3.59294
1543 1 1 14.7483 16.8857 4.69869
701 1 1 10.8494 17.0656 2.58765
310 1 1 15.6679 13.9921 3.32369
712 1 1 15.2213 15.8923 4.82142
1153 1 1 14.4071 14.5295 1.73686
1514 1 1 1.65391 14.349 3.86291
759 1 1 16.1409 15.6872 4.3903
724 1 1 0.0250882 14.3064 2.81755
284 1 1 2.40947 14.9946 4.8832
1167 1 1 2.0434 16.0877 5.18768
323 1 1 5.30086 16.3573 4.40986
282 1 1 1.69039 15.4243 2.3225
1133 1 1 4.7971 15.2439 4.08579
734 1 1 6.52088 18.5378 4.00828
778 1 1 5.8206 17.3775 6.15373
535 1 1 6.47959 18.5421 5.63862
7975 1 1 6.58216 14.8691 2.51405
1185 1 1 8.79637 18.0032 4.78698
1541 1 1 8.2941 15.7636 1.13254
823 1 1 11.6086 17.7185 4.6572
671 1 1 10.0134 17.4183 4.91412
1186 1 1 11.3308 17.6534 3.59782
1183 1 1 14.6368 14.7107 4.48937
1187 1 1 11.6169 18.7699 4.15754
1191 1 1 15.4401 16.6436 5.70855
748 1 1 18.3612 15.928 5.44983
716 1 1 15.1879 15.9651 2.84724
1150 1 1 16.2331 15.7632 5.38881
1189 1 1 16.679 17.823 3.96923
280 1 1 0.102226 15.8173 3.10439
727 1 1 18.1453 15.3657 4.14818
837 1 1 17.4753 16.5821 1.91157
1161 1 1 3.05364 14.7585 5.69229
726 1 1 4.96495 18.1055 1.04769
693 1 1 4.28922 16.6932 4.95792
1215 1 1 5.12173 17.8042 5.36966
1217 1 1 4.66273 15.6045 3.19583
1213 1 1 9.5377 18.7492 4.1387
1140 1 1 6.60201 18.2042 2.98013
423 1 1 9.84031 16.6532 5.55001
428 1 1 9.58793 18.5551 5.40239
822 1 1 12.2224 18.749 6.54369
1141 1 1 8.51963 0.194647 5.00758
432 1 1 15.4382 18.0448 4.32158
463 1 1 15.006 17.9364 6.27179
1195 1 1 18.6831 17.3577 4.17237
467 1 1 13.8454 1.56948 3.67839
1590 1 1 12.9177 0.965377 3.53332
787 1 1 15.7788 1.42855 3.13608
1160 1 1 18.3608 0.0672343 2.94696
2037 1 1 17.1074 14.7844 3.22576
1239 1 1 1.54215 18.3647 4.93462
1206 1 1 2.47951 3.2183 3.40358
845 1 1 2.16988 0.799107 6.25483