ITEM: TIMESTEP
3700
ITEM: NUMBER OF ATOMS
8000
ITEM: BOX BOUNDS pp pp pp
0.0000000000000000e+00 1.8820720577620570e+01
0.0000000000000000e+00 1.8820720577620570e+01
0.0000000000000000e+00 3.7641441155241139e+01
ITEM: ATOMS id mass type x y z
917 1 1 18.7134 1.91953 0.700657
7524 1 1 3.2491 2.95687 1.96096
319 1 1 3.07288 18.1282 0.22201
770 1 1 5.60949 0.339066 36.4155
7215 1 1 2.406 0.0271735 0.261808
6 1 1 5.00092 0.73376 0.0351845
7644 1 1 6.64719 1.34757 1.46813
7339 1 1 6.28095 0.3245 1.14117
7620 1 1 7.27843 1.2595 0.671714
343 1 1 7.46618 2.8352 37.1434
416 1 1 8.54613 1.77645 1.0144
937 1 1 9.71565 2.36198 1.62952
780 1 1 10.1308 17.7295 2.84059
15 1 1 11.3751 2.88561 1.08181
7661 1 1 8.35657 0.791943 1.28706
7667 1 1 9.43989 2.20672 0.494216
785 1 1 13.0682 18.0257 2.00936
346 1 1 9.39163 1.17527 1.00857
22 1 1 10.5592 0.632673 1.99025
7619 1 1 12.4901 18.2989 2.71983
746 1 1 13.6622 0.108749 0.818299
7665 1 1 11.8459 1.02077 37.1793
7601 1 1 18.1311 0.927922 0.319198
77 1 1 18.5453 1.32027 36.6844
7992 1 1 17.7885 2.95011 1.52526
356 1 1 17.2722 0.446798 1.45146
761 1 1 1.75496 3.38109 0.197569
7608 1 1 2.75237 0.769114 37.1495
408 1 1 2.83648 2.64504 35.9914
7631 1 1 4.25821 1.89278 1.49818
89 1 1 4.90595 3.0781 2.89982
857 1 1 6.0811 1.62888 3.10099
849 1 1 3.19264 1.48509 1.29328
935 1 1 4.72712 1.83961 37.4898
533 1 1 9.39135 4.74054 1.3398
371 1 1 7.44521 4.4237 0.137736
57 1 1 7.45864 2.2154 36.3318
7298 1 1 6.09803 2.89004 2.29669
55 1 1 8.82796 2.89074 1.4946
897 1 1 9.78528 3.21116 37.6001
1687 1 1 9.46048 3.63959 0.908889
838 1 1 9.96948 2.05654 2.54829
387 1 1 12.3032 1.67565 1.93506
1270 1 1 11.3126 1.62473 1.26192
116 1 1 11.0071 2.45501 35.8812
65 1 1 13.8258 2.30041 37.5167
39 1 1 11.4088 1.96957 37.0717
431 1 1 15.8108 2.47033 0.155637
109 1 1 18.049 2.35726 37.5073
7996 1 1 0.143804 0.66455 1.24708
430 1 1 0.146444 2.05438 2.73553
479 1 1 0.430121 2.26143 37.1073
841 1 1 0.348249 1.82886 1.72436
1289 1 1 3.59415 1.98367 0.236766
7678 1 1 1.94139 2.14892 0.19862
37 1 1 2.15637 2.53993 36.7616
885 1 1 4.79624 3.07173 1.39755
521 1 1 6.38357 3.07118 36.7999
900 1 1 4.80283 3.1047 37.3774
455 1 1 6.90085 3.5642 1.2827
494 1 1 9.15825 3.94366 36.545
7657 1 1 8.45766 5.08841 0.0191284
461 1 1 10.3701 2.94227 0.744606
28 1 1 11.5839 3.8537 1.37959
623 1 1 11.4078 4.33681 37.2717
505 1 1 12.4848 2.79399 0.389295
7746 1 1 13.8954 3.87536 37.2894
72 1 1 16.1905 3.3689 1.82721
7756 1 1 18.3482 6.26617 0.790192
7950 1 1 16.0595 1.92158 36.6614
73 1 1 16.503 2.81598 0.958461
442 1 1 0.560144 3.8652 0.0513643
127 1 1 0.908719 3.91635 35.9523
729 1 1 2.28354 5.72453 0.297076
7249 1 1 1.25249 5.24063 0.236917
7643 1 1 1.89714 5.79805 1.29149
933 1 1 2.73965 2.6751 0.098219
485 1 1 3.97054 6.51543 36.8363
7700 1 1 7.82941 4.9131 0.937762
209 1 1 6.16086 4.1242 0.749942
52 1 1 6.0296 5.94769 37.3572
7371 1 1 4.13112 5.07128 1.25767
497 1 1 7.24324 6.63242 1.57976
532 1 1 9.62716 5.35656 0.417496
575 1 1 9.0438 4.86426 36.9221
462 1 1 9.33182 6.87287 37.2693
537 1 1 10.6234 5.04543 0.260701
224 1 1 11.7431 5.48136 1.59843
633 1 1 9.9984 6.02682 1.27105
146 1 1 13.35 6.10623 0.436512
152 1 1 14.5872 4.18403 0.439534
476 1 1 14.3092 5.84372 0.568247
7392 1 1 13.282 3.25467 36.368
80 1 1 16.5098 4.87763 36.0066
7236 1 1 17.3731 5.72922 1.24711
517 1 1 18.2794 4.26831 36.055
554 1 1 16.9554 6.66221 1.94355
7603 1 1 16.7558 5.77692 0.188441
520 1 1 0.227272 5.3826 0.255019
7715 1 1 18.4126 5.10382 1.62448
88 1 1 1.3848 6.3457 37.5157
444 1 1 17.8236 8.17483 1.05911
999 1 1 17.7133 7.1783 0.956943
524 1 1 2.274 7.07747 0.101538
440 1 1 3.10889 6.36177 0.753141
7239 1 1 0.386063 5.94336 36.9257
10 1 1 7.93093 6.65315 3.96611
445 1 1 5.10482 6.76483 1.78579
99 1 1 8.49524 9.36327 35.5709
534 1 1 7.32095 7.57649 37.3772
7699 1 1 7.9967 4.03313 37.0328
7423 1 1 9.11683 2.66716 2.60936
502 1 1 12.4022 5.15033 37.2635
570 1 1 10.4002 6.28079 36.9224
7821 1 1 11.1378 7.07077 37.5437
989 1 1 14.0529 6.18304 37.1278
578 1 1 14.5317 6.85962 0.326865
7591 1 1 14.0108 7.31179 37.0054
7798 1 1 14.5448 7.48441 2.01384
1000 1 1 14.9154 5.04869 1.05112
7359 1 1 17.0849 7.33488 0.0556599
1396 1 1 15.639 9.73076 0.734934
559 1 1 17.5511 9.05308 37.5975
74 1 1 17.4489 7.80831 36.7224
195 1 1 17.6409 6.63258 36.775
1329 1 1 18.3364 8.35691 37.1373
44 1 1 1.44175 6.71969 36.4988
1409 1 1 1.55037 7.16309 0.97792
128 1 1 2.82286 11.7126 36.2442
92 1 1 4.91656 8.49936 36.206
81 1 1 3.81285 8.27018 0.996395
446 1 1 7.54409 7.15751 2.70574
1369 1 1 2.3702 8.23367 36.9664
983 1 1 5.72531 8.99388 1.46991
95 1 1 7.78109 8.3841 36.5385
607 1 1 10.3205 7.71737 37.3337
619 1 1 9.63821 9.76646 0.275456
7855 1 1 12.2464 6.19555 37.4851
1067 1 1 12.2596 9.08037 0.0510854
7743 1 1 9.93958 8.46472 0.214435
186 1 1 13.5267 8.3342 0.324949
7800 1 1 16.4111 6.62359 36.7593
552 1 1 15.5283 6.04591 0.537337
634 1 1 18.1831 5.81807 37.3325
549 1 1 15.796 7.6489 0.124045
78 1 1 14.2362 9.16951 37.4816
1314 1 1 17.6135 9.59359 1.02503
7395 1 1 15.7773 10.949 0.89141
7641 1 1 18.4277 6.38454 3.41305
1323 1 1 1.17002 8.13081 0.75841
7879 1 1 0.655398 8.78359 35.7349
239 1 1 2.96375 9.05663 1.08632
153 1 1 2.16512 8.11297 1.53672
1048 1 1 4.93303 10.4009 1.89828
197 1 1 2.64262 10.1058 0.164149
222 1 1 6.21876 8.99473 0.511039
138 1 1 7.90198 8.23839 3.00691
7774 1 1 7.72787 10.9282 0.402411
1461 1 1 7.03448 8.0973 1.1356
7772 1 1 9.30464 9.51761 1.19243
1109 1 1 9.94651 10.6976 37.1657
7751 1 1 11.0556 8.95058 37.2902
303 1 1 12.3925 9.07843 2.54518
665 1 1 12.4575 10.0165 0.0146844
7432 1 1 12.1264 9.55249 1.64402
265 1 1 12.0958 10.7107 36.026
7466 1 1 11.7466 9.031 36.4779
230 1 1 15.4555 9.0625 36.7737
276 1 1 15.1272 9.75786 37.5327
557 1 1 17.1542 11.2417 37.1949
4 1 1 16.1629 11.9374 0.202426
636 1 1 15.6996 8.77199 0.230826
7758 1 1 17.0352 8.45057 1.9984
1450 1 1 18.1566 11.9866 2.31585
1521 1 1 1.07382 10.9378 1.49849
598 1 1 3.63645 13.8217 0.329585
165 1 1 0.0784821 10.8515 37.6204
1365 1 1 2.84717 11.2843 0.838855
7847 1 1 5.11201 10.5008 0.651756
7734 1 1 8.75646 10.4372 37.4535
536 1 1 7.20047 10.6416 1.35631
374 1 1 8.53281 10.6562 1.24899
976 1 1 11.4891 12.5707 0.551422
228 1 1 11.0744 10.8164 1.27563
1063 1 1 13.0298 10.3047 36.6018
7912 1 1 11.0159 11.7149 2.5082
7428 1 1 14.0721 11.3131 1.32332
308 1 1 13.6967 10.6131 37.3977
235 1 1 13.2167 11.5393 3.16519
236 1 1 17.0487 13.7461 1.75049
7875 1 1 16.0276 12.782 36.8808
1389 1 1 15.4661 13.0096 1.89033
192 1 1 18.3212 13.3163 2.16126
7804 1 1 16.529 9.68775 1.2859
962 1 1 18.1513 11.051 35.4673
281 1 1 17.7009 10.3516 37.2296
84 1 1 18.3287 9.64307 2.11405
1154 1 1 1.42986 14.029 0.699292
7880 1 1 0.687759 11.4157 0.666605
365 1 1 4.31586 11.1341 0.678418
1089 1 1 4.84406 12.5389 1.87761
613 1 1 5.77369 13.0091 2.62633
7499 1 1 5.42634 11.5774 0.655113
7808 1 1 8.49874 11.3651 37.3823
687 1 1 6.48303 13.5212 1.21795
1098 1 1 7.73773 9.34712 2.15308
296 1 1 8.23184 12.7693 0.839174
660 1 1 9.03109 12.3512 0.341743
705 1 1 12.0579 13.4456 0.714073
269 1 1 12.4429 12.4437 2.43974
7903 1 1 13.7252 14.2281 0.713029
273 1 1 12.7163 12.3425 0.856849
639 1 1 17.4347 13.8413 4.33207
1078 1 1 16.4498 11.8819 1.20752
1040 1 1 17.0418 14.2343 37.4929
7525 1 1 18.2804 12.2806 0.438121
204 1 1 16.9068 14.6732 1.06658
404 1 1 3.0385 13.5122 1.65563
7835 1 1 1.8884 11.686 0.487078
643 1 1 3.56358 15.0271 1.35382
1010 1 1 6.3364 13.4668 3.5016
287 1 1 6.09211 13.0909 0.117863
567 1 1 7.34793 11.4949 36.7666
342 1 1 7.18718 14.542 1.4707
344 1 1 8.16562 14.5456 2.1138
1573 1 1 8.52887 13.3951 2.14361
697 1 1 10.7081 11.8892 0.387141
602 1 1 10.8365 13.8098 0.691419
982 1 1 12.5529 16.1888 0.223845
379 1 1 12.8651 15.1442 0.912001
7834 1 1 13.1471 12.0385 1.60685
7440 1 1 13.3337 12.1461 -0.0392529
674 1 1 14.4352 12.999 0.762531
7561 1 1 16.0247 15.1143 1.37523
7925 1 1 17.3061 12.6421 1.32296
7844 1 1 15.5545 15.8027 1.81397
683 1 1 15.4512 13.0971 0.783522
7924 1 1 0.1535 9.95984 0.4496
397 1 1 0.172198 15.1595 37.1246
1125 1 1 1.92831 16.7025 37.5585
648 1 1 1.90832 15.7424 0.551729
7888 1 1 3.94344 11.613 4.2979
700 1 1 7.44499 17.0674 0.777239
332 1 1 6.02773 16.5536 0.698427
7930 1 1 6.51403 16.13 37.6414
7937 1 1 7.57846 14.9075 36.943
743 1 1 7.34608 12.9469 36.7175
249 1 1 10.1035 15.4916 0.867587
7858 1 1 8.95942 16.098 0.91415
658 1 1 11.6398 16.3404 0.622671
7945 1 1 9.07659 14.8558 3.55046
666 1 1 13.897 15.0517 37.5303
7551 1 1 14.639 13.6438 1.59743
749 1 1 14.3565 16.7027 36.6702
7991 1 1 13.8206 15.4137 36.3866
314 1 1 16.8179 15.1903 0.12073
328 1 1 17.5241 17.8316 1.45836
7040 1 1 17.3421 16.6722 1.777
797 1 1 0.938067 16.5118 0.459481
732 1 1 3.91824 17.7067 37.1357
7650 1 1 0.847319 17.8901 36.1482
721 1 1 3.88458 18.2079 1.01566
1128 1 1 4.004 15.5485 2.15601
771 1 1 3.22611 17.0554 1.65238
85 1 1 5.12869 15.4397 36.1047
775 1 1 8.53155 16.7341 37.443
1541 1 1 8.30891 18.537 2.69236
7531 1 1 6.94814 18.4947 1.8552
698 1 1 9.60993 16.6695 2.10009
655 1 1 9.00154 17.4526 3.07729
304 1 1 11.1498 14.8236 1.57751
7983 1 1 9.0681 15.0716 1.41354
7994 1 1 10.9778 16.0955 1.55308
675 1 1 13.4725 16.9773 37.377
306 1 1 14.1278 17.0233 0.745018
7188 1 1 14.353 18.1472 1.05921
7547 1 1 14.2753 17.6542 36.7267
7990 1 1 12.6951 18.7276 0.260267
7881 1 1 14.838 16.4768 0.0668285
7228 1 1 16.584 18.3949 1.86582
351 1 1 16.4398 17.2949 0.826878
7635 1 1 0.413951 18.0038 0.170742
7280 1 1 2.58715 0.603937 1.51795
7998 1 1 2.82169 18.0144 1.67475
731 1 1 1.78793 18.7963 36.9453
7972 1 1 1.75276 16.9408 1.21647
448 1 1 4.96454 17.6095 36.9439
7971 1 1 4.99127 17.7425 0.988076
363 1 1 5.84537 15.5811 37.0259
726 1 1 5.9477 18.5937 0.0925393
60 1 1 7.14439 18.6337 0.500109
7539 1 1 7.03684 2.46957 0.781403
419 1 1 7.45714 0.757912 1.93163
67 1 1 8.54055 18.7989 0.143257
382 1 1 11.6326 18.5987 3.36778
829 1 1 8.05231 18.7061 1.66014
742 1 1 9.66455 0.0830885 36.5426
7938 1 1 10.0176 18.7381 0.685816
6836 1 1 13.3749 17.3483 35.4594
31 1 1 11.3178 17.4891 0.520747
7948 1 1 13.5995 18.2162 2.81255
7997 1 1 13.0063 1.24671 0.634472
7622 1 1 15.5718 16.8057 0.988795
352 1 1 15.7203 18.0228 0.983966
7515 1 1 15.2154 17.9384 1.99261
395 1 1 15.3171 18.1323 36.7705
7552 1 1 15.8178 1.77782 0.992464
752 1 1 18.555 17.8151 3.83104
157 1 1 1.87489 0.328256 2.64091
40 1 1 0.024771 0.450042 4.00918
321 1 1 1.33419 1.18283 1.17894
1208 1 1 3.21991 0.512857 0.637015
41 1 1 5.24949 0.0594612 2.63574
764 1 1 4.0525 0.97605 0.0938582
1168 1 1 5.46008 1.18851 2.09722
774 1 1 5.34689 0.033151 1.1679
385 1 1 7.90793 1.82803 2.32279
850 1 1 9.95703 1.99333 4.57745
7626 1 1 8.90366 1.77658 2.09314
422 1 1 12.4497 0.594701 2.36365
824 1 1 13.4365 0.382339 2.70937
818 1 1 10.9985 16.754 3.77877
1143 1 1 15.5781 1.22137 2.88821
784 1 1 15.3004 1.9954 2.1777
389 1 1 14.7294 0.174297 3.30847
798 1 1 15.2184 17.6168 2.96874
1106 1 1 17.1546 1.57552 1.69918
1272 1 1 14.9663 0.731667 0.193958
115 1 1 17.2856 1.05289 2.70549
835 1 1 0.515096 1.02595 2.34031
33 1 1 18.3116 17.1823 37.2641
833 1 1 18.1606 1.60422 1.66037
324 1 1 1.80395 2.12764 1.69386
35 1 1 18.6352 3.14325 3.12377
362 1 1 3.00956 4.05224 1.48476
47 1 1 2.78091 2.65652 2.77579
491 1 1 3.43299 1.23596 2.33113
7616 1 1 4.71496 0.797724 3.22919
765 1 1 7.20525 3.73338 2.61549
7219 1 1 7.57154 2.69079 1.69594
93 1 1 7.70919 3.43015 3.90264
7698 1 1 8.54475 5.44754 2.70199
908 1 1 10.8169 2.45728 1.81111
470 1 1 10.5644 4.25552 4.26962
473 1 1 10.7344 3.6556 1.66402
869 1 1 10.804 1.47969 2.4792
876 1 1 12.2011 2.57488 1.46452
30 1 1 13.5144 3.90107 0.722069
511 1 1 12.2269 1.74085 0.203249
32 1 1 13.5268 1.10499 1.6607
787 1 1 15.0165 1.85808 37.5302
478 1 1 16.9403 3.9353 2.16059
514 1 1 16.2486 3.79345 3.30891
1675 1 1 17.7111 3.91195 1.31337
82 1 1 1.14636 4.05471 1.96564
899 1 1 0.816665 2.83345 1.75744
87 1 1 2.29904 4.72475 0.700647
488 1 1 3.63401 3.76129 3.42396
449 1 1 2.41226 6.88022 2.49239
475 1 1 2.93324 3.71712 0.401266
889 1 1 5.0867 2.23019 2.39787
454 1 1 3.29186 4.89491 0.249923
376 1 1 7.31592 4.521 1.9408
504 1 1 6.36942 2.69711 3.40072
14 1 1 6.98257 4.26783 3.67074
500 1 1 10.2154 3.23465 3.7435
139 1 1 12.0637 1.36142 3.12729
460 1 1 11.6826 3.29793 2.28379
556 1 1 12.5496 4.05422 1.39488
7636 1 1 13.9952 3.37608 1.47566
34 1 1 15.2448 2.71078 1.43974
506 1 1 14.5655 2.80123 0.678633
113 1 1 14.6093 3.39194 2.33624
786 1 1 15.2758 4.21469 2.69383
480 1 1 17.136 3.27159 0.351058
155 1 1 1.45209 2.58022 0.933854
1232 1 1 0.577823 3.54393 1.02952
1751 1 1 18.212 4.384 2.68137
523 1 1 2.63701 5.4515 2.52397
441 1 1 0.413336 7.80529 2.01677
1290 1 1 3.04727 5.42521 1.21441
1337 1 1 4.3305 4.043 0.979507
1254 1 1 6.38878 6.60807 4.9703
102 1 1 9.39359 4.23533 37.6344
945 1 1 8.23556 3.80509 0.856819
1295 1 1 6.8414 5.11211 2.98233
7611 1 1 10.3474 4.07416 0.570923
814 1 1 8.23026 3.52365 2.21582
217 1 1 10.6835 2.91104 2.82049
909 1 1 11.1865 6.32915 1.7958
978 1 1 11.0741 4.37591 2.46476
538 1 1 12.4125 5.30592 2.34252
150 1 1 13.8497 4.85984 1.4601
134 1 1 13.9576 7.57084 3.15517
420 1 1 13.3894 4.18345 1.96472
68 1 1 14.108 4.73758 2.52313
471 1 1 14.8528 4.14608 1.64281
944 1 1 13.9594 6.46745 1.37893
7986 1 1 15.8464 3.84146 0.71282
594 1 1 15.8397 6.52215 3.80992
550 1 1 16.1189 4.84229 1.98868
519 1 1 17.8578 6.17065 2.44382
1315 1 1 0.046596 4.09401 1.75654
522 1 1 0.886769 6.87399 1.82654
1285 1 1 1.41492 6.10651 2.59607
7718 1 1 2.17475 7.82555 3.09781
922 1 1 0.0309131 7.23646 1.13383
637 1 1 4.49572 7.22292 2.51723
886 1 1 2.87634 7.3812 0.992842
90 1 1 4.4002 8.25631 2.97765
53 1 1 6.5269 8.8592 3.51827
171 1 1 8.42422 6.45377 2.34999
1334 1 1 4.15263 6.99446 4.42885
1774 1 1 5.77377 7.21577 2.70698
530 1 1 8.44949 7.58258 36.6771
91 1 1 9.79654 7.66651 2.00404
616 1 1 10.6698 4.65024 1.48797
177 1 1 10.2086 7.54117 0.77015
973 1 1 10.2651 6.46028 2.48729
579 1 1 11.5096 5.89022 0.590134
551 1 1 11.5753 7.18038 0.856597
1036 1 1 12.6784 6.96625 2.62497
231 1 1 13.9757 8.39824 2.21213
546 1 1 14.9498 6.63778 1.47946
196 1 1 16.3715 5.05803 37.0762
979 1 1 16.4222 7.56621 0.912611
881 1 1 16.6192 4.92356 0.962738
1360 1 1 16.0099 6.563 1.10824
808 1 1 0.758179 6.20414 0.765438
1038 1 1 17.1518 7.53496 2.70223
481 1 1 0.142163 6.02317 1.85202
1806 1 1 1.23434 7.38894 -0.0211209
1488 1 1 1.46424 7.80459 2.25489
131 1 1 2.61994 8.68483 2.66412
645 1 1 4.8631 8.26711 37.4076
1045 1 1 3.95076 8.2795 1.99926
611 1 1 7.10681 7.89666 3.46222
1401 1 1 3.35588 7.11586 0.0347597
1339 1 1 6.326 6.21209 3.90341
1019 1 1 9.4927 7.03768 3.73061
647 1 1 8.13942 9.48326 37.4285
1327 1 1 8.67834 7.74469 1.09188
498 1 1 10.6165 7.64747 2.75076
140 1 1 11.2296 7.49898 1.76626
1023 1 1 13.9768 8.92308 1.08983
1429 1 1 13.2987 7.63943 1.9021
7714 1 1 15.7108 6.52054 2.46834
958 1 1 15.4229 7.43933 1.07025
563 1 1 16.7127 8.68204 0.759184
200 1 1 18.3381 8.17839 2.13504
191 1 1 0.37726 8.13421 0.0924489
124 1 1 2.65654 8.41177 0.25899
241 1 1 1.27403 8.93956 1.67455
564 1 1 2.60382 9.95544 1.27758
7684 1 1 4.3013 9.14079 36.9637
1366 1 1 6.17714 11.1663 1.53487
1287 1 1 3.28011 11.2449 3.45029
164 1 1 3.80646 9.36146 1.50057
357 1 1 6.66143 9.45421 2.30528
7841 1 1 4.6001 7.5676 1.07197
215 1 1 7.04747 9.39264 1.32965
566 1 1 6.7487 7.97788 2.33165
890 1 1 7.93002 7.7385 1.79674
178 1 1 10.7732 8.4363 2.039
1417 1 1 7.9448 9.62031 0.981004
142 1 1 10.9452 9.83301 1.66755
1105 1 1 10.2855 9.03873 1.14249
7748 1 1 9.04106 8.73094 0.6071
7827 1 1 10.2166 10.3735 3.46417
626 1 1 14.7221 8.28027 0.394739
188 1 1 14.9235 9.0606 0.966881
916 1 1 14.1013 9.93167 2.06066
568 1 1 0.26581 8.57303 1.19775
202 1 1 1.8509 10.6221 0.649508
1053 1 1 4.16688 10.0872 2.6129
233 1 1 4.80545 11.4805 1.6096
1003 1 1 5.1636 9.28605 0.417075
925 1 1 5.85542 10.0503 1.49582
1061 1 1 7.92985 9.15856 3.29625
1420 1 1 9.49596 10.726 0.588435
7817 1 1 7.14308 14.0144 0.398836
615 1 1 7.65442 10.2978 2.13518
333 1 1 8.92524 11.3374 3.25058
7862 1 1 9.05522 9.4168 2.21935
7780 1 1 11.5872 10.5104 2.09327
624 1 1 10.0187 8.31007 3.84576
257 1 1 10.2319 11.6877 1.7738
1076 1 1 13.4771 9.92605 0.83436
614 1 1 11.1972 11.289 3.85952
261 1 1 12.2432 11.1616 2.47634
600 1 1 13.7478 12.488 2.56923
2238 1 1 16.5375 12.8693 2.01069
240 1 1 16.5678 12.3138 4.17349
270 1 1 17.3043 11.875 0.421642
7921 1 1 1.87131 11.8763 1.52836
242 1 1 1.33447 10.2272 2.29491
7928 1 1 3.72408 11.1185 1.6508
968 1 1 17.914 13.6878 5.23286
358 1 1 6.33248 10.5199 2.32524
288 1 1 2.90884 11.7695 1.81029
7843 1 1 6.02576 11.7638 2.61508
337 1 1 7.12947 10.5799 4.99688
1532 1 1 6.32311 11.7294 3.65356
574 1 1 8.30136 11.9356 4.21273
216 1 1 8.93217 9.89231 3.638
691 1 1 7.19794 12.7058 2.76091
16 1 1 8.08927 13.8271 3.00749
256 1 1 9.799 12.4915 0.949059
259 1 1 11.2474 12.9373 1.36441
694 1 1 10.4291 10.7594 2.25009
254 1 1 11.8869 11.8229 3.28095
1069 1 1 12.9699 13.5189 2.13453
592 1 1 14.0908 12.7912 37.3328
1074 1 1 14.8358 11.0587 0.0658293
271 1 1 14.3051 11.9912 0.523191
7840 1 1 15.2923 12.0237 1.21515
7838 1 1 14.434 11.6986 2.2346
1035 1 1 17.9943 14.6875 37.5049
677 1 1 17.7317 13.466 36.9993
1001 1 1 1.57769 11.1392 2.73369
720 1 1 18.6407 11.5318 1.11119
7442 1 1 0.370914 14.4948 35.7788
758 1 1 17.5727 13.7411 0.598905
7964 1 1 0.208333 14.4571 1.1954
7482 1 1 3.97267 13.1619 1.26297
685 1 1 4.76362 14.0111 1.93857
1529 1 1 4.30012 14.3109 1.10191
1081 1 1 5.76395 12.5743 3.62458
696 1 1 4.88063 15.1296 1.50845
7975 1 1 7.13591 14.3749 3.00664
740 1 1 8.92688 15.2442 2.45222
7856 1 1 8.52232 16.0833 3.93342
341 1 1 8.3802 14.2066 4.79314
213 1 1 9.02428 13.9956 1.27886
7864 1 1 9.86726 14.4261 0.486279
1908 1 1 10.1157 14.3053 2.61746
229 1 1 10.0478 13.9084 1.52846
7829 1 1 13.6851 13.3947 1.26826
747 1 1 13.6203 13.1569 3.466
277 1 1 11.5872 13.1922 3.39703
317 1 1 12.6884 14.8935 3.12197
278 1 1 17.5715 15.1111 1.90285
7480 1 1 14.2236 12.3161 1.4674
1474 1 1 18.8154 17.2725 1.81432
724 1 1 1.22444 15.0736 3.38662
7920 1 1 15.478 15.2475 2.77595
769 1 1 0.547228 15.0111 4.14633
282 1 1 0.818558 13.9765 2.86337
325 1 1 2.63335 15.2151 1.82388
243 1 1 3.36089 13.343 2.60739
1136 1 1 6.23066 14.385 2.23501
1526 1 1 2.89631 15.8855 2.60993
411 1 1 6.19344 15.3052 2.52927
373 1 1 7.15009 15.8021 2.03262
1145 1 1 7.44902 15.2827 0.958278
7214 1 1 7.18371 16.5339 2.91912
7543 1 1 8.9982 14.1969 2.5775
1533 1 1 12.2105 15.7949 2.22347
736 1 1 11.2767 14.7915 0.475859
662 1 1 11.356 14.7635 2.72472
1151 1 1 12.3773 14.7839 2.24882
699 1 1 11.0138 13.8215 1.94155
670 1 1 14.9025 16.1257 2.43718
1153 1 1 13.8586 15.0603 2.63763
7870 1 1 16.1024 17.2174 1.81757
590 1 1 15.8523 14.0367 1.61157
1199 1 1 18.6491 13.7879 0.391987
394 1 1 18.8219 15.8466 3.09164
7887 1 1 0.723821 17.0705 2.63006
399 1 1 1.63562 18.0164 2.13448
1198 1 1 0.802256 17.3134 1.18505
330 1 1 4.1508 15.5597 3.92535
812 1 1 4.46512 17.1583 0.359093
370 1 1 4.02231 16.3353 1.30289
7573 1 1 5.17555 15.3853 3.75708
7610 1 1 6.85675 17.563 0.0631499
29 1 1 7.18633 1.04028 2.84244
777 1 1 6.16418 17.359 3.01181
690 1 1 7.71715 17.8569 1.41628
381 1 1 7.92272 16.5785 1.99161
1114 1 1 9.97731 17.1442 3.78897
701 1 1 9.7137 18.13 4.81693
1142 1 1 13.1055 17.2665 0.878666
7913 1 1 14.2694 18.7437 2.25481
7125 1 1 15.7785 16.6418 2.96905
709 1 1 15.6516 18.4345 4.44303
1158 1 1 1.65253 18.8482 1.31282
837 1 1 14.659 17.0837 1.64844
766 1 1 17.8992 18.6149 2.01178
12 1 1 18.4769 17.644 0.869956
436 1 1 1.1455 18.3594 3.02087
7651 1 1 2.30341 16.9986 1.98726
336 1 1 3.01292 18.087 2.66593
5 1 1 4.3138 18.341 2.20324
1301 1 1 6.43263 17.8827 0.881432
27 1 1 7.8916 0.51917 3.79629
779 1 1 8.68032 0.768761 2.38751
820 1 1 9.44321 18.8108 2.15297
7628 1 1 8.74107 17.5256 4.44025
7627 1 1 9.40884 18.3845 3.23899
316 1 1 12.4229 0.335942 1.13045
64 1 1 13.3882 17.0807 2.45801
7478 1 1 14.3872 1.64446 2.29541
7872 1 1 13.8237 16.2996 1.88929
7155 1 1 15.9161 18.4842 3.13639
1110 1 1 18.361 0.557048 3.06731
364 1 1 16.3478 0.56561 2.5014
753 1 1 17.9215 17.4377 2.5834
1954 1 1 0.797913 16.7019 3.63304
843 1 1 3.05951 18.3983 3.6593
853 1 1 1.99706 18.5191 3.94459
292 1 1 4.4902 0.563227 1.88673
1932 1 1 3.4705 0.147135 1.78832
1260 1 1 1.32347 0.158736 5.93146
772 1 1 4.48365 0.215423 4.98575
452 1 1 5.44164 1.00513 3.99018
861 1 1 6.3221 0.576367 3.54521
734 1 1 6.50584 1.8556 4.78706
17 1 1 6.99047 2.08803 2.78442
1180 1 1 8.83814 1.51753 4.47881
410 1 1 7.64941 18.0649 4.34086
906 1 1 10.9863 1.66657 4.77612
1138 1 1 12.8824 18.6766 3.60988
7984 1 1 13.7188 16.4898 3.37927
26 1 1 13.3848 0.891169 3.56964
792 1 1 13.8127 0.944865 6.00787
949 1 1 15.4833 1.53197 4.16865
433 1 1 15.3335 0.103327 2.11834
702 1 1 14.464 0.778396 5.13677
800 1 1 16.6119 0.905595 3.63165
1640 1 1 18.1297 1.61738 3.7519
794 1 1 18.6428 1.94007 4.69631
1160 1 1 1.32039 1.75079 2.47116
1670 1 1 16.4132 1.82892 2.40338
1644 1 1 1.2479 3.60779 3.15745
1637 1 1 18.2801 5.36317 2.90763
913 1 1 1.96797 3.59971 1.28919
1201 1 1 3.32647 2.39881 1.1026
802 1 1 1.98296 0.877978 3.9041
1250 1 1 6.31715 0.59783 2.1674
1130 1 1 8.58832 2.27969 3.30283
863 1 1 7.0336 1.39358 3.97738
854 1 1 9.63717 1.95719 5.70406
810 1 1 8.55196 2.39203 5.40537
71 1 1 11.4294 0.861028 4.03982
1345 1 1 10.2622 1.18456 5.99785
7632 1 1 13.1913 1.53281 2.52046
1377 1 1 11.8246 2.39742 5.29765
7779 1 1 11.5459 2.23975 2.47236
151 1 1 14.3285 1.24793 3.8074
1597 1 1 12.6005 2.46921 2.61279
465 1 1 13.2425 2.54311 3.45768
1713 1 1 14.45 1.91073 1.14645
910 1 1 15.3382 2.90163 4.10532
1265 1 1 16.8205 3.03648 4.22554
2432 1 1 17.0124 2.829 2.26128
2197 1 1 17.2214 4.64025 2.73659
2029 1 1 17.6533 3.59781 3.0902
852 1 1 3.98069 6.91059 1.64786
883 1 1 1.61518 7.66707 4.78116
1241 1 1 0.588055 7.52191 4.41919
450 1 1 2.61973 4.32774 2.62443
7697 1 1 6.69269 3.26336 0.164662
1210 1 1 4.23205 1.37124 4.49485
1206 1 1 4.42759 2.77562 3.96057
7607 1 1 5.54266 2.11114 4.19325
1299 1 1 4.62721 5.98885 4.3951
1181 1 1 5.66276 3.95268 3.54833
104 1 1 4.86287 3.52373 4.77928
7 1 1 9.62652 3.77616 1.94629
971 1 1 9.31511 3.31669 3.44483
588 1 1 11.8699 4.86808 3.49786
862 1 1 12.515 3.66496 2.88122
427 1 1 12.9611 3.25239 1.95713
1196 1 1 14.0633 2.48939 1.92231
558 1 1 13.9523 3.12858 4.4532
474 1 1 15.5274 3.0923 2.75245
112 1 1 16.1196 2.32339 3.47918
603 1 1 2.39561 5.32758 3.54334
1673 1 1 3.26187 6.91813 4.95848
959 1 1 18.4883 7.44902 3.20616
887 1 1 3.43816 4.81204 3.46161
98 1 1 1.83489 4.78272 1.7475
1280 1 1 4.00136 3.66776 2.47905
767 1 1 4.40593 4.41167 4.23946
1340 1 1 6.35161 3.57075 4.36556
1739 1 1 8.37115 4.50955 1.88464
1310 1 1 8.51274 5.46272 1.46037
938 1 1 10.3003 5.4292 2.0549
1385 1 1 9.8002 3.01532 5.27785
1714 1 1 11.4602 6.85374 3.43675
1194 1 1 15.7315 5.57626 1.48886
912 1 1 13.7187 3.34664 2.82231
7754 1 1 13.1316 4.63888 3.03486
515 1 1 14.8236 3.59427 3.56191
156 1 1 16.0625 3.65779 4.3074
1316 1 1 15.803 5.51577 3.00901
1033 1 1 16.4596 5.24779 5.06654
120 1 1 1.38401 3.15445 4.18126
1685 1 1 0.307261 3.44584 6.36277
486 1 1 18.4249 6.65237 4.45888
966 1 1 3.73101 8.25921 5.5007
884 1 1 1.51355 5.15841 4.27797
848 1 1 2.46415 6.46191 4.58684
1769 1 1 4.95342 6.40091 3.51933
1780 1 1 4.44756 6.13265 5.58226
1373 1 1 5.87835 5.59012 2.31696
975 1 1 4.94113 7.01873 5.35504
1296 1 1 6.07014 7.84757 5.5811
1026 1 1 8.88898 6.3196 1.1497
1331 1 1 7.74951 5.06228 3.78439
1413 1 1 10.5943 4.08157 3.24916
555 1 1 8.96746 7.45128 2.84888
1374 1 1 9.31958 6.11307 2.11624
1066 1 1 9.75941 5.4848 3.21377
553 1 1 9.30893 4.55082 3.22114
7712 1 1 11.86 7.76974 2.90897
509 1 1 12.5087 6.85489 4.19765
1350 1 1 13.3087 6.55014 3.27175
995 1 1 14.2389 5.73208 2.64235
870 1 1 15.2238 8.04563 5.52882
193 1 1 14.9446 7.09277 3.19675
593 1 1 15.842 7.66925 3.65369
1443 1 1 16.7188 7.0107 3.53546
560 1 1 18.0284 7.66527 4.40967
483 1 1 1.33041 4.81353 3.00487
7721 1 1 17.7737 8.1016 3.50648
489 1 1 1.62021 7.11416 3.76855
531 1 1 2.71863 10.6286 2.9022
1414 1 1 2.84192 8.76255 5.77104
46 1 1 4.05142 9.46355 5.27964
1330 1 1 3.19604 7.68137 2.70729
1041 1 1 4.90319 9.60103 3.20306
936 1 1 3.37246 5.70919 4.89576
580 1 1 5.6814 8.28104 3.12386
180 1 1 7.16862 7.60203 4.76904
1302 1 1 6.19151 5.11706 4.39164
7850 1 1 8.72917 8.16129 5.23389
865 1 1 6.0219 7.63053 6.50379
1017 1 1 9.79122 10.1299 1.83298
1308 1 1 7.27414 6.02608 3.28057
628 1 1 12.6723 8.727 4.24457
606 1 1 12.9696 7.94029 3.06711
108 1 1 15.0206 8.22233 3.17241
1020 1 1 11.675 7.48952 4.26619
1425 1 1 10.8794 6.36912 5.75219
942 1 1 11.3908 5.08166 5.89037
1037 1 1 15.3005 8.36456 1.59984
1441 1 1 14.5253 7.48448 4.38137
960 1 1 16.8912 8.09044 4.16322
1353 1 1 16.0099 8.33403 2.71555
2357 1 1 17.6056 9.02651 2.68038
997 1 1 17.5456 9.88334 3.09833
1757 1 1 17.5567 9.00114 4.30498
1802 1 1 0.704055 9.29472 2.51494
315 1 1 0.343011 11.2539 2.99225
1034 1 1 18.8216 8.38968 3.7835
1442 1 1 1.0448 7.60939 3.09049
1322 1 1 0.278415 9.38968 3.97676
1724 1 1 3.54703 9.30993 4.1312
1085 1 1 7.04034 9.81474 3.45875
130 1 1 8.37868 7.75746 3.76994
539 1 1 8.64247 8.43405 1.80627
653 1 1 7.78514 8.61551 0.602683
649 1 1 10.4978 7.29587 4.08052
587 1 1 8.87291 8.7772 3.2112
586 1 1 9.38925 9.60164 5.08654
232 1 1 9.87357 8.81871 2.72864
136 1 1 11.3101 8.49874 4.83166
1031 1 1 11.7241 10.5501 0.537138
1065 1 1 10.5063 9.08161 4.85194
1057 1 1 12.3757 5.43323 5.56627
1073 1 1 12.5953 10.6976 1.41211
591 1 1 13.2276 9.24622 2.02752
914 1 1 16.2158 8.80583 3.55073
1395 1 1 15.1907 9.17798 2.35314
7397 1 1 16.1673 9.05333 1.9374
961 1 1 0.694375 10.283 4.32097
1405 1 1 1.66336 8.51502 3.92253
1403 1 1 18.4505 9.33356 3.12032
1410 1 1 1.79341 9.41167 2.586
1484 1 1 0.299698 11.9889 1.87734
1282 1 1 4.15584 12.1034 3.0854
1820 1 1 4.02666 10.4766 4.90286
1002 1 1 6.78501 10.8815 3.26354
1050 1 1 8.33074 9.92282 2.76384
1415 1 1 6.19845 11.2244 4.6328
932 1 1 5.45264 9.92707 4.83011
1091 1 1 6.79265 14.44 4.98087
610 1 1 7.93949 10.2905 3.76251
1102 1 1 9.19246 12.979 1.58487
1135 1 1 7.6872 11.1658 2.86308
1822 1 1 9.29007 12.0196 4.01424
622 1 1 11.9278 11.401 4.54978
993 1 1 14.5217 10.1057 0.797311
1430 1 1 12.8211 11.054 4.02794
1538 1 1 13.6561 10.282 4.14076
1072 1 1 15.0302 10.8551 2.61552
2234 1 1 15.6661 11.2885 1.82154
1825 1 1 15.6824 11.8013 2.81999
311 1 1 16.354 9.63731 2.84352
608 1 1 15.9622 12.663 3.27421
1475 1 1 17.1547 10.8628 3.17971
757 1 1 18.8013 12.2085 5.0414
1005 1 1 2.47185 10.7974 1.8602
597 1 1 17.3627 12.7312 4.92452
1444 1 1 5.22968 10.7872 4.33049
1406 1 1 0.0416154 13.1963 4.08903
246 1 1 2.35547 11.7827 2.82572
1008 1 1 6.94067 13.4722 4.59891
659 1 1 7.47728 11.2996 3.97207
604 1 1 7.08327 11.0519 6.011
661 1 1 8.45104 10.329 5.27833
1104 1 1 8.30366 12.2808 5.86342
621 1 1 7.98682 13.1809 4.18314
1182 1 1 9.83277 13.2727 2.29678
1983 1 1 10.142 13.0076 5.86435
1509 1 1 9.44517 11.8795 2.35968
211 1 1 10.2288 11.1801 4.65807
7784 1 1 10.7294 12.3816 4.64903
663 1 1 11.6976 12.2944 4.1452
667 1 1 13.5011 12.8442 4.75462
1437 1 1 15.0032 10.5306 36.525
669 1 1 13.3646 11.154 2.20903
1042 1 1 14.7158 12.2128 3.29007
1030 1 1 16.5659 13.3824 4.40028
1149 1 1 18.0319 13.4651 3.29059
1368 1 1 16.6992 12.1169 2.68626
1880 1 1 17.8757 12.032 6.2461
1007 1 1 1.44229 12.8252 4.16338
755 1 1 1.82324 13.2124 3.20141
1163 1 1 2.4733 12.164 4.38275
686 1 1 4.48196 13.1321 3.57153
7900 1 1 6.44774 14.468 3.77084
1047 1 1 6.49893 12.2746 5.22501
7541 1 1 7.37054 11.6135 5.26456
627 1 1 7.22028 12.7202 3.73559
2343 1 1 8.07389 14.7247 3.59048
225 1 1 11.1092 12.8989 2.44119
1537 1 1 10.9794 15.3159 3.66438
1108 1 1 14.2161 13.3139 2.39143
630 1 1 13.9651 14.9041 5.32668
1070 1 1 9.65415 14.0857 4.6869
715 1 1 14.7763 13.7432 5.48766
305 1 1 13.2658 14.0427 3.0849
1183 1 1 16.0255 15.1783 5.21309
629 1 1 15.0299 14.0341 2.57992
678 1 1 14.5401 13.9513 3.65261
1004 1 1 16.1078 13.8356 0.578368
1046 1 1 18.1802 13.1371 1.14966
682 1 1 2.14563 16.4193 4.22993
280 1 1 18.1294 14.4858 2.57357
727 1 1 1.88777 13.5602 1.46651
1514 1 1 2.24893 15.0302 2.98811
816 1 1 1.34825 15.8837 4.36939
773 1 1 4.68126 14.8131 4.63404
1131 1 1 4.47239 14.5816 3.0878
1217 1 1 5.33082 16.2414 4.56181
1453 1 1 5.60555 14.0059 2.91503
1530 1 1 6.13306 16.4634 3.83339
1133 1 1 7.18538 15.7971 3.64661
286 1 1 7.82238 15.676 2.78994
1531 1 1 7.33129 15.0182 4.43076
1170 1 1 9.2445 16.1565 3.08363
737 1 1 10.0017 15.8923 3.91079
1192 1 1 10.7807 16.3658 2.5988
668 1 1 14.0144 15.9963 0.570106
1506 1 1 9.90222 15.2681 2.71876
1059 1 1 12.6961 14.5982 4.59487
672 1 1 12.5871 12.7865 3.51551
1427 1 1 14.8564 14.9945 3.54384
1147 1 1 15.4813 16.7656 5.16389
234 1 1 16.3289 16.0883 2.41387
1596 1 1 15.6569 13.641 3.49188
310 1 1 17.7323 16.1431 2.60382
759 1 1 17.4754 16.4707 6.03509
2037 1 1 16.6781 13.7948 2.9267
1561 1 1 18.6435 14.2144 3.94585
791 1 1 18.0073 14.1686 1.43502
873 1 1 1.48178 15.9711 3.03644
1195 1 1 18.2396 16.6943 4.96695
1233 1 1 0.900653 17.4627 4.5588
1566 1 1 1.72825 18.1886 5.10401
1172 1 1 4.73693 16.1717 2.27685
1129 1 1 3.70085 17.0946 2.65162
340 1 1 4.65724 17.5935 2.86338
1134 1 1 4.22886 18.7106 3.13243
7615 1 1 4.30099 16.9576 4.81293
605 1 1 5.94043 16.7665 2.15337
19 1 1 6.62885 17.5034 1.85957
260 1 1 7.41459 17.7214 2.48204
1064 1 1 9.47766 14.9806 6.24385
783 1 1 9.03931 0.113979 5.67448
1176 1 1 9.01804 15.2361 4.67458
1472 1 1 14.0487 15.9821 4.30739
1226 1 1 11.9838 15.5541 3.27871
353 1 1 14.4019 16.464 5.54219
716 1 1 16.2477 18.3048 5.41319
7923 1 1 14.9754 17.6032 5.40241
745 1 1 15.4414 17.4376 4.17363
437 1 1 16.2913 17.1897 3.70022
312 1 1 17.9467 16.3974 3.88553
1999 1 1 18.0233 15.2847 4.4959
443 1 1 0.108671 16.249 4.14098
412 1 1 1.71518 17.2019 2.91732
1251 1 1 1.49897 17.4434 5.80255
487 1 1 4.04949 16.0634 3.03607
815 1 1 5.99067 18.1028 5.54767
855 1 1 6.42575 18.5195 3.03989
1140 1 1 5.31814 0.0846067 3.62224
7901 1 1 5.64681 17.9974 1.98449
704 1 1 5.73264 17.1969 4.59622
1178 1 1 8.51018 3.11826 0.196692
417 1 1 9.30605 1.4006 3.53346
468 1 1 8.84204 16.3209 4.98618
1213 1 1 8.6327 18.4737 3.86471
821 1 1 10.3871 0.719848 3.40805
1186 1 1 11.1717 17.451 4.49939
11 1 1 13.7936 17.7593 3.91972
1107 1 1 12.2601 16.7824 2.8744