ITEM: TIMESTEP
3100
ITEM: NUMBER OF ATOMS
8000
ITEM: BOX BOUNDS pp pp pp
0.0000000000000000e+00 1.8820720577620570e+01
0.0000000000000000e+00 1.8820720577620570e+01
0.0000000000000000e+00 3.7641441155241139e+01
ITEM: ATOMS id mass type x y z
917 1 1 0.00429062 1.05324 0.834332
7524 1 1 0.920412 0.961496 1.34669
319 1 1 2.65692 0.278659 0.952675
770 1 1 4.25821 18.7703 0.963217
7215 1 1 3.48021 1.26226 0.9013
6 1 1 4.52252 1.23712 1.3289
7644 1 1 5.87651 0.766464 0.532181
7339 1 1 5.87901 0.934252 1.62416
7620 1 1 7.09954 0.192679 0.225626
343 1 1 6.77516 1.15347 0.634853
416 1 1 7.92288 0.572455 1.1427
937 1 1 8.78912 1.18506 1.77981
780 1 1 9.8394 0.448864 0.550575
15 1 1 8.96086 0.85236 0.0595963
7661 1 1 9.27299 0.130757 1.47787
7667 1 1 9.71021 1.62541 1.55283
785 1 1 11.5212 18.6757 1.51327
346 1 1 10.3489 0.0170748 1.73326
22 1 1 11.5413 0.700818 0.710761
7619 1 1 12.4594 0.28147 0.49655
746 1 1 13.5931 0.250156 1.3302
7665 1 1 13.5193 1.42557 0.524665
7601 1 1 15.9268 0.730854 0.669316
77 1 1 17.4884 1.17708 37.3617
7992 1 1 17.3311 0.686143 1.27039
356 1 1 18.0506 0.24172 0.689065
761 1 1 1.21564 2.45229 0.100014
7608 1 1 1.29713 1.89004 1.02352
408 1 1 2.33378 2.88998 36.8143
7631 1 1 2.49026 2.1134 0.435196
89 1 1 4.65844 2.30129 1.78651
857 1 1 3.78087 2.39148 1.11622
849 1 1 3.33046 2.22154 2.00044
935 1 1 5.17804 2.46054 0.0733377
533 1 1 6.90103 2.0526 0.185652
371 1 1 6.38448 1.98939 1.52819
57 1 1 8.05412 1.65259 0.304992
7298 1 1 7.76773 3.19272 0.339534
55 1 1 7.67924 1.97951 1.37102
897 1 1 8.93413 2.00341 37.3723
1687 1 1 8.40683 2.53199 0.865942
838 1 1 10.8172 1.56493 1.27211
387 1 1 12.9039 1.66675 1.25667
1270 1 1 11.5078 2.09829 0.587217
116 1 1 12.4695 1.92713 37.055
65 1 1 14.1914 2.31496 0.640509
39 1 1 12.8614 2.63101 0.669337
431 1 1 15.2909 3.46167 0.596635
109 1 1 16.7605 1.41933 0.627037
7996 1 1 17.8286 1.89837 0.531798
430 1 1 18.0808 1.6393 1.6161
479 1 1 0.0604144 2.66144 0.14035
841 1 1 0.865086 3.42402 0.828525
1289 1 1 2.75731 3.23319 1.38528
7678 1 1 1.88566 3.67756 0.824404
37 1 1 3.50471 3.33628 0.638883
885 1 1 4.50302 2.87982 0.702127
521 1 1 4.29664 4.22938 0.346481
900 1 1 5.23295 3.66525 0.221956
455 1 1 6.61535 3.54346 2.09542
494 1 1 8.55403 3.77624 0.881841
7657 1 1 6.93819 3.92044 0.9255
461 1 1 9.57172 3.016 1.01457
28 1 1 10.4529 4.13967 0.147517
623 1 1 10.9482 3.81681 36.9696
505 1 1 12.1509 3.47293 0.650839
7746 1 1 14.4526 3.22719 37.5668
72 1 1 15.2393 4.56471 0.825727
7756 1 1 16.787 4.41671 1.33532
7950 1 1 16.4267 3.40681 0.346818
73 1 1 17.3825 3.25906 0.982943
442 1 1 18.7574 4.13817 0.705613
127 1 1 0.16395 5.32936 37.2756
729 1 1 1.27224 4.55567 0.262744
7249 1 1 0.721511 4.66119 1.53049
7643 1 1 2.12657 5.63495 0.269427
933 1 1 3.34473 4.56799 1.18885
485 1 1 3.74766 6.00139 1.06639
7700 1 1 5.95474 4.55637 1.46607
209 1 1 5.03321 5.63543 1.31631
52 1 1 4.44851 5.18427 37.4167
7371 1 1 5.3615 4.85563 0.473534
497 1 1 6.25984 5.36571 0.755303
532 1 1 7.36954 5.34442 1.54037
575 1 1 8.16662 4.80028 0.325091
462 1 1 9.70911 5.63301 37.4854
537 1 1 9.09775 4.78408 0.271062
224 1 1 10.2481 5.183 0.701268
633 1 1 11.2898 5.68076 0.913856
146 1 1 12.4545 5.99224 0.92661
152 1 1 12.0453 4.87575 0.952589
476 1 1 13.1965 4.8968 0.77402
7392 1 1 13.6386 4.76339 37.4484
80 1 1 14.6728 4.9293 0.036842
7236 1 1 15.9269 4.91201 1.42942
517 1 1 17.6546 4.28152 0.585313
554 1 1 16.4408 5.97405 0.745907
7603 1 1 17.4482 5.42991 0.51124
520 1 1 18.2856 5.0801 0.866541
7715 1 1 17.4277 5.14324 1.54299
88 1 1 0.958653 5.53957 0.734769
444 1 1 0.629868 6.90783 1.10673
999 1 1 18.6669 6.47005 0.56777
524 1 1 3.13704 6.77763 0.687341
440 1 1 2.68893 5.48749 1.20098
7239 1 1 1.5883 7.0079 0.723229
10 1 1 4.50436 6.71525 0.459213
445 1 1 6.48057 6.45418 0.444151
99 1 1 7.46553 6.45962 37.5754
534 1 1 8.28002 7.1897 37.0785
7699 1 1 8.47621 5.87004 0.594418
7423 1 1 9.29863 5.14357 1.19284
502 1 1 10.5694 6.2897 0.420923
570 1 1 9.59821 6.12893 0.710156
7821 1 1 11.2163 6.96681 1.05692
989 1 1 13.4351 5.90854 0.16917
578 1 1 12.3218 7.1037 0.952817
7591 1 1 13.4607 7.38659 0.282545
7798 1 1 13.3916 6.45415 1.37624
1000 1 1 14.2776 5.79624 0.769833
7359 1 1 16.578 6.83245 0.044398
1396 1 1 16.7654 7.65797 0.669016
559 1 1 17.8442 6.09146 1.22514
74 1 1 17.5772 6.76549 0.107466
195 1 1 18.7518 7.32562 37.4213
1329 1 1 0.177718 7.95624 0.667418
44 1 1 1.74508 7.44294 37.2427
1409 1 1 2.5209 7.47859 1.23253
128 1 1 2.59292 8.83257 37.5633
92 1 1 3.82798 8.34116 0.894881
81 1 1 2.94849 8.65693 1.65977
446 1 1 5.68584 7.61974 0.501033
1369 1 1 4.76946 7.56067 1.30849
983 1 1 6.72321 8.22074 1.86015
95 1 1 7.79676 8.05309 0.056407
607 1 1 9.81275 8.81947 1.16362
619 1 1 9.35692 7.76373 0.886546
7855 1 1 11.8297 7.92359 1.46745
1067 1 1 13.2742 7.57511 1.53203
7743 1 1 11.9708 7.73082 37.6162
186 1 1 13.1419 8.33926 0.733873
7800 1 1 14.3774 6.67457 0.35777
552 1 1 14.2533 7.12872 1.38677
634 1 1 15.5966 7.31467 0.995245
549 1 1 15.0117 8.26642 0.857385
78 1 1 15.3154 8.80529 37.6421
1314 1 1 17.103 8.67649 1.49186
7395 1 1 16.4075 8.64747 0.74578
7641 1 1 17.9595 7.52155 1.13939
1323 1 1 1.16763 9.00088 0.341518
7879 1 1 0.0646249 9.17676 0.160827
239 1 1 1.64027 9.66297 1.09894
153 1 1 1.91356 8.09018 0.476137
1048 1 1 3.68213 9.38221 0.782238
197 1 1 2.54916 9.63882 0.593855
222 1 1 5.93733 9.31506 37.4541
138 1 1 6.95005 9.04539 1.28035
7774 1 1 6.28193 10.245 0.547252
1461 1 1 7.83923 9.2113 0.483825
7772 1 1 8.90863 9.3756 1.07835
1109 1 1 9.34832 9.9485 37.3734
7751 1 1 9.63923 10.0701 1.02299
303 1 1 11.7666 9.86785 1.30672
665 1 1 11.8494 9.01538 0.473605
7432 1 1 12.485 8.82784 1.35973
265 1 1 12.9848 9.92806 37.3714
7466 1 1 12.637 9.78203 0.623298
230 1 1 15.5203 9.35188 0.91685
276 1 1 14.3996 8.99285 0.42789
557 1 1 17.206 8.8913 37.4846
4 1 1 17.1877 10.0467 0.655888
636 1 1 16.4092 9.82507 1.28183
7758 1 1 18.0913 8.73241 0.756012
1450 1 1 1.31085 11.4109 0.622216
1521 1 1 0.618303 10.1485 0.436973
598 1 1 3.11544 11.2402 0.434335
165 1 1 1.79236 11.5798 1.56401
1365 1 1 3.75117 10.7446 1.01617
7847 1 1 5.26236 10.4469 0.909229
7734 1 1 8.18103 10.1782 1.04523
536 1 1 8.93564 10.893 1.15153
374 1 1 7.98689 11.6342 0.294419
976 1 1 9.73822 11.6718 0.781967
228 1 1 9.00162 10.9594 0.0141689
1063 1 1 10.8329 9.88144 0.334071
7912 1 1 10.9086 11.3176 0.894759
7428 1 1 12.5851 10.6626 1.14561
308 1 1 13.6167 10.3396 1.05722
235 1 1 14.9155 10.4709 1.5343
236 1 1 15.9646 10.7757 0.840077
7875 1 1 14.5173 11.2186 0.471125
1389 1 1 16.4731 11.7836 1.63904
192 1 1 17.6763 10.1985 1.81293
7804 1 1 18.5952 10.9002 0.688839
962 1 1 18.0909 11.6398 37.0662
281 1 1 18.4563 10.3818 37.4195
84 1 1 18.6516 9.88082 1.21844
1154 1 1 0.834254 12.9374 0.51715
7880 1 1 1.60255 12.3465 0.1934
365 1 1 3.61357 12.179 0.70323
1089 1 1 4.72226 12.2419 1.09554
613 1 1 5.37581 11.8781 1.81396
7499 1 1 5.39939 12.0869 0.432577
7808 1 1 6.97756 11.7591 0.668193
687 1 1 6.35069 12.5551 0.754637
1098 1 1 6.30778 11.651 1.36552
296 1 1 8.01148 12.3231 1.41183
660 1 1 9.92031 12.8853 1.54602
705 1 1 10.7424 12.3866 1.0305
269 1 1 13.1431 11.5534 1.06887
7903 1 1 13.0435 13.4628 0.550958
273 1 1 13.4991 12.6094 0.168497
639 1 1 16.3062 12.365 0.255003
1078 1 1 15.44 11.6531 0.344403
1040 1 1 17.5346 13.7469 0.509854
7525 1 1 18.3154 12.3952 0.45721
204 1 1 0.513462 13.8514 0.862114
404 1 1 1.93964 14.4151 1.97933
7835 1 1 2.93603 12.9228 0.0928046
643 1 1 3.15612 15.074 0.158771
1010 1 1 5.53659 13.0241 1.56545
287 1 1 5.13383 14.5196 0.38012
567 1 1 5.81791 13.4951 37.2712
342 1 1 7.02894 13.3424 0.865307
344 1 1 8.48413 13.5138 0.454025
1573 1 1 7.85657 13.8403 1.51143
697 1 1 9.86412 12.838 37.3934
602 1 1 10.3018 13.978 0.375745
982 1 1 11.7169 12.8145 0.549114
379 1 1 12.7917 14.5539 -0.00134081
7834 1 1 13.381 14.14 1.22459
7440 1 1 14.4944 14.0691 0.327623
674 1 1 15.2404 13.3832 0.833969
7561 1 1 15.9034 14.383 37.346
7925 1 1 16.3399 13.2744 0.934039
7844 1 1 16.6759 14.553 0.892034
683 1 1 15.8481 14.2994 1.47026
7924 1 1 18.0807 13.2072 1.40871
397 1 1 18.0088 14.7674 0.661497
1125 1 1 1.04128 15.7093 0.731041
648 1 1 2.68094 15.7905 0.589783
7888 1 1 4.39336 14.5181 1.53104
700 1 1 6.93278 14.6002 0.571124
332 1 1 6.2026 16.2155 1.75587
7930 1 1 5.93446 15.5242 0.546481
7937 1 1 8.10591 14.4973 0.744448
743 1 1 9.17222 14.6739 0.163406
249 1 1 11.2168 14.4601 37.4486
7858 1 1 10.3297 15.0139 0.379505
658 1 1 11.958 15.6528 0.184685
7945 1 1 11.5901 15.1056 1.67158
666 1 1 13.8764 14.9831 0.823891
7551 1 1 14.8869 14.6149 1.16059
749 1 1 15.6569 15.4722 1.03835
7991 1 1 14.717 15.0557 0.184305
314 1 1 16.1347 15.4839 0.00618622
328 1 1 18.2853 16.1903 0.936557
7040 1 1 17.2625 15.2256 0.171695
797 1 1 0.633051 16.1021 37.3797
732 1 1 2.89731 17.0521 37.384
7650 1 1 1.55369 17.1051 0.677193
721 1 1 3.87306 17.5716 0.472706
1128 1 1 3.99857 15.8935 0.679553
771 1 1 3.20912 16.9286 1.54657
85 1 1 5.87054 16.9045 0.232361
775 1 1 6.51864 17.093 0.920071
1541 1 1 8.57899 16.3864 1.00263
7531 1 1 8.05264 17.1345 0.372963
698 1 1 9.4517 15.8383 0.798356
655 1 1 10.2113 16.5789 0.964071
304 1 1 11.1811 16.1153 0.912964
7983 1 1 10.2837 16.2326 37.4893
7994 1 1 12.1636 16.457 0.957629
675 1 1 13.2046 16.5491 1.46406
306 1 1 14.6551 15.9127 0.809764
7188 1 1 13.1204 17.3198 0.209772
7547 1 1 15.261 17.2244 0.398167
7990 1 1 13.401 16.4028 36.9965
7881 1 1 16.0707 16.4291 1.59541
7228 1 1 15.1372 17.4407 1.37001
351 1 1 16.8922 16.6157 0.240889
7635 1 1 0.262955 17.6705 0.351889
7280 1 1 1.68415 18.35 2.03632
7998 1 1 1.09225 18.3187 0.388922
731 1 1 3.32232 18.4381 0.222265
7972 1 1 1.88241 18.3955 1.00531
448 1 1 2.64357 17.6924 0.783092
7971 1 1 3.83572 17.6736 1.83104
363 1 1 5.41861 17.9774 0.213154
726 1 1 5.42303 18.7306 1.12581
60 1 1 6.2474 18.215 0.898718
7539 1 1 7.19423 18.3839 1.35091
419 1 1 8.30212 17.6299 1.24993
67 1 1 8.90441 18.3812 0.09631
382 1 1 9.43352 17.4801 1.02822
829 1 1 10.1184 18.4093 37.4124
742 1 1 10.4342 17.4892 0.363234
7938 1 1 10.684 18.4516 0.79005
6836 1 1 12.1117 18.299 37.0814
31 1 1 12.0292 18.1803 0.391073
7948 1 1 11.63 17.2312 0.653644
7997 1 1 13.3062 18.4489 0.262672
7622 1 1 14.6599 18.1764 0.746836
352 1 1 15.3398 18.7116 37.6372
7515 1 1 16.0386 18.365 1.43818
395 1 1 16.2736 17.2968 0.905959
7552 1 1 16.7657 18.642 0.652084
752 1 1 17.312 18.4772 1.66642
157 1 1 0.615278 18.8117 2.04695
40 1 1 1.8626 0.377809 2.74746
321 1 1 2.33597 1.23424 1.0782
1208 1 1 2.5237 1.61586 2.50278
41 1 1 4.5814 0.997584 2.59802
764 1 1 3.84502 0.582381 1.7188
1168 1 1 4.95722 0.105938 2.09689
774 1 1 6.35295 18.795 1.8535
385 1 1 7.31602 0.531547 2.09391
850 1 1 8.20784 0.913449 2.73175
7626 1 1 9.51902 0.807573 2.37156
422 1 1 10.5905 0.722886 2.77264
824 1 1 12.1643 1.00759 1.60911
818 1 1 11.3996 0.077351 2.74518
1143 1 1 13.1369 1.79841 2.59415
784 1 1 14.0469 1.05867 2.00883
389 1 1 14.5712 0.321317 2.67471
798 1 1 15.1109 18.6209 1.88493
1106 1 1 15.8813 1.26482 2.05987
1272 1 1 14.942 1.47669 2.09642
115 1 1 17.1139 1.64935 2.21554
835 1 1 18.6527 0.733289 2.16671
33 1 1 18.3826 18.5893 1.64416
833 1 1 17.3955 0.625007 2.44629
324 1 1 0.207619 1.88816 2.0279
35 1 1 -0.00369182 1.71977 3.24441
362 1 1 2.4752 2.84563 2.34101
47 1 1 3.75359 1.58163 2.7746
491 1 1 4.01426 2.79012 2.81386
7616 1 1 5.28973 1.62709 2.48748
765 1 1 7.37355 2.93594 1.79711
7219 1 1 7.09142 1.96092 2.22646
93 1 1 8.42213 2.2683 2.70152
7698 1 1 8.63639 3.25517 2.16627
908 1 1 9.46003 2.55076 2.05132
470 1 1 10.6897 2.56694 2.67519
473 1 1 11.1141 2.63541 1.6349
869 1 1 12.1735 2.31182 1.51671
876 1 1 12.7511 3.10418 2.78837
30 1 1 13.3187 2.68005 1.5976
511 1 1 14.794 1.38952 1.15602
32 1 1 14.6334 2.84769 1.69391
787 1 1 15.6411 1.36074 3.41441
478 1 1 17.1365 2.69309 2.46087
514 1 1 15.9505 2.80851 1.87494
1675 1 1 18.1418 2.46809 2.49172
82 1 1 0.307954 4.09924 2.41114
899 1 1 0.232428 3.05195 2.12016
87 1 1 1.96073 4.97979 1.63806
488 1 1 2.37996 3.79056 3.06499
449 1 1 2.8089 4.76781 3.20869
475 1 1 1.60152 3.42457 1.93897
889 1 1 4.0824 3.15619 1.70413
454 1 1 3.61708 3.9426 2.89311
376 1 1 5.06266 3.6917 1.54008
504 1 1 5.70005 3.58128 3.09139
14 1 1 7.6901 4.10379 1.58485
500 1 1 10.0619 3.46149 2.14861
139 1 1 11.6884 3.0421 2.59853
460 1 1 10.8901 4.16137 2.51651
556 1 1 12.7592 3.66018 1.77601
7636 1 1 13.1968 4.62589 1.76398
34 1 1 13.7281 3.53996 2.17905
506 1 1 14.5744 3.98917 1.54559
113 1 1 15.5139 4.04945 2.09009
786 1 1 16.3097 4.38688 2.89847
480 1 1 16.8946 3.57198 2.00925
155 1 1 18.0268 3.64191 1.73165
1232 1 1 18.3584 2.61162 1.22329
1751 1 1 18.1183 3.45288 2.9346
523 1 1 0.872575 5.41938 2.2176
441 1 1 1.8707 5.86929 2.56812
1290 1 1 3.27996 5.04489 2.25666
1337 1 1 4.62502 5.56031 2.36374
1254 1 1 6.57839 5.42884 2.88492
102 1 1 8.33644 4.7929 1.36379
945 1 1 7.49474 4.65669 2.54529
1295 1 1 8.18024 5.80484 2.84964
7611 1 1 9.74929 4.10407 0.950238
814 1 1 8.90255 4.09629 1.73964
217 1 1 10.0884 5.16707 2.11448
909 1 1 11.239 5.38753 1.93961
978 1 1 10.9098 4.03533 1.43977
538 1 1 11.9289 4.3765 2.70929
150 1 1 12.3094 5.11263 2.03282
134 1 1 12.5065 5.65427 2.95169
420 1 1 13.006 4.21152 2.74703
68 1 1 14.0615 4.79653 2.55944
471 1 1 14.0252 5.17178 1.61306
944 1 1 13.3463 5.47842 2.4342
7986 1 1 15.0477 5.24164 2.05541
594 1 1 15.1484 5.86653 3.02484
550 1 1 16.0586 5.42652 2.46932
519 1 1 18.2668 5.65381 2.2241
1315 1 1 18.1161 4.48304 2.24755
522 1 1 0.517224 6.37167 2.55241
1285 1 1 0.149558 5.85621 1.40858
7718 1 1 2.3174 6.70875 3.81126
922 1 1 1.65166 6.61724 1.85435
637 1 1 2.90499 6.16113 2.53343
886 1 1 3.96396 6.47163 1.995
90 1 1 4.4352 7.29953 2.6282
53 1 1 5.01773 6.73356 1.9557
171 1 1 6.01363 6.88156 1.64961
1334 1 1 5.42212 6.83075 2.78318
1774 1 1 6.3482 5.79274 1.81066
530 1 1 8.26221 7.02083 0.500469
91 1 1 8.82163 6.80276 1.48768
616 1 1 9.57701 6.17684 1.73471
177 1 1 11.6711 7.25976 2.26386
973 1 1 10.7199 6.36532 2.28305
579 1 1 9.98259 7.22368 1.82449
551 1 1 12.0778 6.3694 1.85646
1036 1 1 12.8313 6.87021 2.36318
231 1 1 14.1858 6.51038 2.12987
546 1 1 14.284 7.20614 3.36409
196 1 1 15.5472 6.27922 1.35955
979 1 1 15.0755 6.80966 2.5512
881 1 1 16.2814 6.4917 2.35082
1360 1 1 16.8747 7.3019 2.81027
808 1 1 18.7199 6.72603 1.83491
1038 1 1 18.2722 7.3252 2.63724
481 1 1 0.71212 7.34821 2.21275
1806 1 1 1.35013 8.00963 1.70361
1488 1 1 0.814311 8.37602 2.97015
131 1 1 3.57632 7.44713 1.39105
645 1 1 4.49546 8.44812 2.52463
1045 1 1 3.54706 7.81969 2.79689
611 1 1 5.50751 7.92428 2.89948
1401 1 1 5.59996 8.05931 1.86598
1339 1 1 6.32493 7.45052 2.51319
1019 1 1 7.75121 7.72425 2.41075
647 1 1 8.61851 8.32991 0.909889
1327 1 1 9.12777 7.22556 2.4179
498 1 1 10.6541 7.27165 2.7031
140 1 1 11.0462 8.83105 1.2733
1023 1 1 12.9381 8.08161 2.92709
1429 1 1 14.0321 7.6676 2.52806
7714 1 1 15.9481 7.75249 2.51951
958 1 1 15.4965 8.71751 1.75799
563 1 1 16.3621 8.05778 1.62817
200 1 1 17.6384 7.85328 2.07892
191 1 1 18.6132 8.06948 1.75943
124 1 1 0.251428 8.9063 1.20584
241 1 1 0.710995 9.66557 2.02784
564 1 1 1.78672 9.97383 2.14503
7684 1 1 1.67474 8.96145 1.97082
1366 1 1 4.31156 9.8588 1.39364
1287 1 1 3.56014 9.73077 2.52261
164 1 1 5.88794 8.82358 2.57243
357 1 1 5.03449 9.44038 2.27163
7841 1 1 4.67305 8.54524 1.37527
215 1 1 6.25296 9.85895 1.84603
566 1 1 6.68434 9.4018 2.72322
890 1 1 7.97653 8.78995 2.77474
178 1 1 8.94752 8.37217 1.92833
1417 1 1 7.46066 9.77396 1.96621
142 1 1 8.45772 9.93011 1.92527
1105 1 1 10.7169 9.6186 1.95955
7748 1 1 11.1883 8.58754 2.45621
7827 1 1 11.8001 9.7668 2.40475
626 1 1 14.5892 9.13675 2.2309
188 1 1 13.387 8.5499 2.04981
916 1 1 13.3773 9.2583 3.22419
568 1 1 18.062 9.34721 2.13144
202 1 1 1.10358 10.7102 1.32867
1053 1 1 2.92006 10.1802 1.47663
233 1 1 3.64865 10.865 2.19685
1003 1 1 4.74191 10.4972 2.08521
925 1 1 5.72307 11.0222 2.0776
1061 1 1 6.87323 10.5832 2.39741
1420 1 1 7.17134 10.6414 0.93586
7817 1 1 6.92957 12.3862 1.72192
615 1 1 7.71288 11.1834 1.84103
333 1 1 9.78027 11.4319 2.22846
7862 1 1 9.39669 10.3796 3.01149
7780 1 1 10.514 10.484 1.38171
624 1 1 10.7665 10.9791 2.92402
257 1 1 12.156 11.667 1.52813
1076 1 1 12.7855 9.87174 2.25125
614 1 1 12.4333 11.0891 2.75316
261 1 1 13.3971 11.5035 2.15685
600 1 1 13.8901 10.4108 2.26407
2238 1 1 16.4856 10.7297 2.17527
240 1 1 18.167 10.0723 2.98936
270 1 1 18.4891 11.0447 1.99709
7921 1 1 1.25354 12.4161 1.80656
242 1 1 1.07503 11.0508 2.35859
7928 1 1 2.83871 12.0706 2.08708
968 1 1 1.37075 12.9167 2.75602
358 1 1 4.21266 11.6611 1.9129
288 1 1 3.84612 12.4718 2.48603
7843 1 1 5.21227 11.5313 2.93063
337 1 1 5.7319 12.8553 2.92895
1532 1 1 6.10616 12.0073 2.52596
574 1 1 6.77776 13.2647 2.95317
216 1 1 8.27113 11.673 2.89946
691 1 1 8.93887 13.023 1.81845
16 1 1 7.71538 12.7587 2.45441
256 1 1 9.2657 12.2429 2.40673
259 1 1 10.3859 12.428 2.27179
694 1 1 11.3023 11.962 1.85232
254 1 1 12.2324 12.3884 2.4347
1069 1 1 12.5316 12.5431 1.3896
592 1 1 13.9977 12.3597 1.08627
1074 1 1 13.4084 13.1495 1.77761
271 1 1 14.4697 13.7009 1.57496
7840 1 1 15.0628 12.3526 0.972275
7838 1 1 15.7239 11.9757 3.24231
1035 1 1 16.8686 12.9419 1.70113
677 1 1 17.7837 11.9192 1.63946
1001 1 1 17.5644 11.4849 2.73458
720 1 1 17.4102 12.5663 2.4314
7442 1 1 1.18376 13.5939 1.93288
758 1 1 18.723 13.5773 2.24125
7964 1 1 0.351713 12.6335 2.21162
7482 1 1 2.68267 13.985 2.83746
685 1 1 2.80025 13.9212 1.58592
1529 1 1 3.43091 14.8186 1.09957
1081 1 1 4.82083 13.8017 3.04927
696 1 1 6.5648 14.1001 1.34859
7975 1 1 6.88662 14.889 2.31981
740 1 1 7.50227 13.8241 2.65496
7856 1 1 8.40222 13.8394 3.33648
341 1 1 10.2991 14.9564 2.72507
213 1 1 9.79327 13.3481 2.66295
7864 1 1 9.50918 13.7235 1.32142
1908 1 1 11.4038 13.795 2.47665
229 1 1 11.4584 12.9541 1.55419
7829 1 1 12.6171 13.575 2.28626
747 1 1 13.5344 14.0625 2.40894
277 1 1 13.569 13.2097 3.09143
317 1 1 12.3953 14.9 3.10051
278 1 1 15.9711 14.2809 2.57555
7480 1 1 15.6134 13.321 1.86702
1474 1 1 17.1616 15.0685 2.76255
724 1 1 0.120047 14.4421 3.09517
7920 1 1 17.5921 14.1489 1.93407
769 1 1 0.242282 14.4825 2.11874
282 1 1 1.23652 15.0573 2.30352
325 1 1 2.17599 15.6211 2.27854
243 1 1 3.00546 14.9727 2.52818
1136 1 1 4.13856 15.479 2.39086
1526 1 1 3.34785 15.6754 1.61112
411 1 1 6.01082 15.3838 2.42184
373 1 1 8.4954 15.5343 1.58351
1145 1 1 9.30381 14.7518 1.38385
7214 1 1 8.68997 16.0748 2.94025
7543 1 1 10.4161 14.3832 1.58994
1533 1 1 10.9221 15.6103 2.25559
736 1 1 9.779 16.0129 1.82627
662 1 1 12.41 14.4298 1.76467
1151 1 1 12.4909 15.8138 1.74316
699 1 1 13.2915 15.2013 2.08567
670 1 1 14.8877 15.7159 2.28133
1153 1 1 14.5663 14.3952 2.4108
7870 1 1 16.9849 16.0898 2.83194
590 1 1 16.2814 15.3119 2.01976
1199 1 1 18.7056 15.4841 1.82972
394 1 1 17.4542 15.6502 1.69478
7887 1 1 1.01763 16.0957 1.87334
399 1 1 18.642 16.4607 2.07812
1198 1 1 2.13679 16.3005 1.39399
330 1 1 3.14399 16.1746 2.51747
812 1 1 4.10568 16.4284 2.00629
370 1 1 4.95713 15.9789 1.02416
7573 1 1 5.07973 16.0551 2.19752
7610 1 1 4.98827 17.1118 1.0541
29 1 1 6.78282 17.6449 1.81576
777 1 1 5.99123 17.0206 3.02038
690 1 1 7.63211 16.7964 1.63811
381 1 1 9.15285 16.7466 2.07561
1114 1 1 10.849 16.6662 2.62794
701 1 1 9.52696 16.8804 3.23259
1142 1 1 12.5314 16.7583 2.20816
7913 1 1 13.5458 17.3327 2.49305
7125 1 1 14.3222 16.6464 3.05251
709 1 1 16.1392 17.0382 2.32025
1158 1 1 16.698 15.762 1.03681
837 1 1 17.4488 16.9346 2.13191
766 1 1 0.13339 17.2875 1.71345
12 1 1 1.57543 17.2385 1.75332
436 1 1 2.30258 18.0172 2.80003
7651 1 1 2.49142 17.017 2.34581
336 1 1 3.68863 18.3351 3.15362
5 1 1 2.99801 18.2659 1.70847
1301 1 1 5.59046 17.7996 2.17072
27 1 1 6.98862 18.4904 2.71872
779 1 1 7.80338 17.8021 2.18501
820 1 1 10.1859 17.0933 1.9621
7628 1 1 9.21931 17.7712 2.1571
7627 1 1 10.3504 18.1917 2.65568
316 1 1 11.1738 17.7603 1.39298
64 1 1 12.738 17.654 1.49261
7478 1 1 13.4151 0.351543 2.31051
7872 1 1 14.1546 18.2606 2.33697
7155 1 1 16.1566 18.068 2.49499
1110 1 1 16.5238 0.12995 2.20533
364 1 1 16.6946 17.6658 1.71005
753 1 1 17.9876 17.8894 2.32433
1954 1 1 1.03093 18.6606 3.56638
843 1 1 2.99094 0.0439505 4.13942
853 1 1 2.30926 1.00927 3.47259
292 1 1 4.00644 0.407815 3.46002
1932 1 1 2.9189 0.285659 3.13676
1260 1 1 3.69177 0.955868 4.27579
772 1 1 5.11999 0.473397 3.18618
452 1 1 5.62935 1.3806 3.75984
861 1 1 6.22118 0.638715 3.00737
734 1 1 6.68352 0.825965 4.34416
17 1 1 7.32793 0.614924 3.27675
1180 1 1 7.73174 0.593086 4.44954
410 1 1 8.63499 0.252259 3.63168
906 1 1 10.1692 1.05867 3.8006
1138 1 1 11.04 0.0594422 3.71933
7984 1 1 12.4222 0.61215 2.71515
26 1 1 13.7228 0.823573 3.19959
792 1 1 13.8533 0.233892 4.83925
949 1 1 14.6769 1.01637 3.57663
433 1 1 15.7398 0.42033 2.78211
702 1 1 15.3685 0.43877 4.69361
800 1 1 16.7689 18.6085 3.53965
1640 1 1 16.5759 0.808818 3.79828
794 1 1 17.7002 0.435793 3.958
1160 1 1 0.14958 0.703454 3.26212
1670 1 1 17.9695 1.31277 3.47976
1644 1 1 1.22832 1.76773 3.65549
1637 1 1 0.144843 3.51692 3.59106
913 1 1 1.12963 2.36554 2.26733
1201 1 1 2.45594 2.61577 3.3042
802 1 1 3.35031 2.31188 3.77857
1250 1 1 4.68457 1.79689 3.45799
1130 1 1 6.67563 1.80142 3.26875
863 1 1 7.90863 1.39715 3.65751
854 1 1 9.22923 1.6677 2.60404
810 1 1 8.92556 2.1373 4.34965
71 1 1 11.26 1.1896 4.03055
1345 1 1 10.1314 2.87791 4.12351
7632 1 1 12.3938 1.34493 3.79353
1377 1 1 11.9029 2.49969 4.68324
7779 1 1 11.5669 1.67454 2.49232
151 1 1 13.8114 1.87111 3.49998
1597 1 1 13.6984 2.95699 3.24908
465 1 1 12.8773 2.55217 4.00296
1713 1 1 15.1027 2.30795 2.51638
910 1 1 14.8928 2.28417 3.55032
1265 1 1 15.6309 3.00751 4.51153
2432 1 1 16.4154 1.97486 3.15061
2197 1 1 17.2362 2.55266 3.46361
2029 1 1 16.8812 1.67304 4.5477
852 1 1 1.28681 4.13249 2.70035
883 1 1 1.19637 4.0525 3.73518
1241 1 1 0.550994 4.80958 3.18596
450 1 1 1.04661 3.55298 4.61627
7697 1 1 4.67285 3.82471 2.73882
1210 1 1 4.18822 2.9585 3.90155
1206 1 1 2.97948 3.39899 4.02185
7607 1 1 5.39125 3.43857 4.20769
1299 1 1 6.76374 3.94032 4.0669
1181 1 1 7.61526 3.21793 3.35083
104 1 1 6.49519 4.26993 3.14588
7 1 1 10.2131 3.50558 3.34843
971 1 1 11.5159 3.35348 3.60618
588 1 1 11.9979 4.3856 3.82457
862 1 1 11.9148 2.42989 3.47822
427 1 1 12.7672 3.64313 3.7859
1196 1 1 14.6184 3.25921 2.70397
558 1 1 14.9983 3.43402 3.68462
474 1 1 15.8656 2.98952 3.07743
112 1 1 16.8773 3.49709 3.14518
603 1 1 0.485619 5.43582 4.1463
1673 1 1 1.7307 5.12794 3.48639
959 1 1 0.952816 6.2048 3.68983
887 1 1 2.99256 5.35574 4.09022
98 1 1 3.57562 5.50572 3.28428
1280 1 1 3.72722 4.23458 3.89111
767 1 1 5.6189 5.05667 3.39267
1340 1 1 7.91055 4.98918 3.72655
1739 1 1 9.34804 5.52334 2.64381
1310 1 1 8.95261 4.37 2.96036
938 1 1 10.8223 5.10648 3.22436
1385 1 1 10.8455 3.99482 4.08236
1714 1 1 11.9987 5.55349 3.89463
1194 1 1 14.149 5.77966 2.98552
912 1 1 13.7994 4.12437 3.56022
7754 1 1 13.7157 5.24015 3.81601
515 1 1 14.9754 4.36366 2.92452
156 1 1 15.6418 4.28822 3.8332
1316 1 1 16.4345 5.10799 3.75189
1033 1 1 15.4925 5.39149 4.12333
120 1 1 17.4631 4.30724 3.48256
1685 1 1 18.3059 4.07089 4.18499
486 1 1 0.156947 6.56062 4.22649
966 1 1 2.88964 7.20665 4.87206
884 1 1 1.41668 7.08273 4.6053
848 1 1 3.25203 6.25447 4.11194
1769 1 1 4.07475 6.44465 3.34953
1780 1 1 5.34329 6.97398 4.6099
1373 1 1 5.19491 5.87865 3.37939
975 1 1 6.13743 7.28347 3.80536
1296 1 1 6.55159 6.38787 3.66762
1026 1 1 8.40882 7.15326 3.04282
1331 1 1 7.79721 6.36355 3.71207
1413 1 1 8.73155 6.02904 3.7123
555 1 1 9.49358 6.71706 4.21691
1374 1 1 9.69525 6.4605 3.05944
1066 1 1 10.7763 6.73066 3.49136
553 1 1 9.84846 5.35999 3.87145
7712 1 1 11.5013 6.01362 3.04876
509 1 1 12.9789 5.9002 4.19389
1350 1 1 13.454 6.58462 3.14348
995 1 1 14.2464 6.29419 3.91484
870 1 1 15.3275 7.30544 4.57032
193 1 1 15.2656 6.86327 3.67829
593 1 1 16.3955 6.39817 3.5792
1443 1 1 17.2157 5.78068 2.64772
560 1 1 17.1597 6.81608 4.30774
483 1 1 18.5804 5.47755 3.42401
7721 1 1 0.413642 7.05828 3.35695
489 1 1 1.66273 7.89266 2.9384
531 1 1 3.21709 8.84888 2.9474
1414 1 1 2.23917 8.1543 4.30058
46 1 1 3.25035 7.13823 3.612
1330 1 1 3.4334 8.16618 4.15668
1041 1 1 4.12683 9.16941 3.27447
936 1 1 4.90057 7.42839 3.50297
580 1 1 5.81105 8.4192 3.79768
180 1 1 6.82913 8.37283 2.83629
1302 1 1 7.07758 7.02907 3.01778
7850 1 1 7.7533 7.49282 3.7408
865 1 1 7.04388 7.42241 4.50433
1017 1 1 10.1305 8.46471 2.90034
1308 1 1 9.60249 7.57321 3.33364
628 1 1 10.4672 7.71045 3.72675
606 1 1 11.2033 8.27162 3.35903
108 1 1 13.7214 8.3434 3.66917
1020 1 1 11.6836 7.21544 3.28353
1425 1 1 11.6887 8.06517 4.28396
942 1 1 12.6995 7.35061 3.71536
1037 1 1 15.1143 7.74163 3.03152
1441 1 1 14.4209 7.73989 4.15818
960 1 1 16.8568 7.74144 3.63958
1353 1 1 15.8154 7.92077 3.90856
2357 1 1 16.6527 8.57853 2.61804
997 1 1 17.5713 8.86125 3.44619
1757 1 1 18.22 7.48675 3.89015
1802 1 1 1.45763 9.18732 3.35101
315 1 1 0.510048 9.81524 3.78961
1034 1 1 0.157479 9.38104 2.88807
1442 1 1 18.5445 8.15795 3.17539
1322 1 1 1.27866 8.89452 4.54103
1724 1 1 1.83984 10.2501 3.80893
1085 1 1 6.18841 9.49139 3.67023
130 1 1 7.33285 9.45712 3.51921
539 1 1 7.98679 9.1664 4.18516
653 1 1 8.12994 9.98894 3.16859
649 1 1 9.37852 8.54468 3.98708
587 1 1 10.0897 9.78902 4.54405
586 1 1 10.69 8.80856 4.04193
232 1 1 9.77218 9.29613 3.5288
136 1 1 10.5759 9.83716 2.96477
1031 1 1 12.2816 9.31666 3.27259
1065 1 1 11.7752 10.2043 3.26579
1057 1 1 11.7759 9.16264 4.3068
1073 1 1 13.2607 9.93676 3.92451
591 1 1 14.6231 8.95034 3.90793
914 1 1 15.6408 9.56297 3.86333
1395 1 1 15.4484 9.28659 2.73049
7397 1 1 17.1951 9.8233 2.72485
961 1 1 18.1031 9.44404 4.0473
1405 1 1 1.27451 10.094 2.91949
1403 1 1 0.383764 10.6113 3.10867
1410 1 1 2.3347 10.9115 3.18709
1484 1 1 1.83796 11.9232 2.46682
1282 1 1 4.12962 10.9717 3.20952
1820 1 1 3.33306 9.09812 4.46967
1002 1 1 4.91441 10.0796 3.2198
1050 1 1 6.3474 11.1324 3.11016
1415 1 1 4.71096 11.7043 4.02221
932 1 1 6.63238 10.6772 4.02585
1091 1 1 6.54341 11.7097 4.67784
610 1 1 7.51143 10.8998 3.48632
1102 1 1 9.50592 11.574 3.69174
1135 1 1 8.69618 10.7779 3.70298
1822 1 1 10.5468 10.9892 4.31761
622 1 1 11.4539 11.6323 3.90273
993 1 1 14.3979 10.1419 3.77406
1430 1 1 13.5895 11.2245 4.38521
1538 1 1 13.2367 10.5201 3.00834
1072 1 1 14.2063 11.2199 3.16643
2234 1 1 15.3327 10.5905 2.9648
1825 1 1 16.1699 10.6505 3.87812
311 1 1 16.5343 9.72238 3.59614
608 1 1 16.7321 11.6584 3.5862
1475 1 1 17.5412 10.8305 3.6746
757 1 1 0.802172 11.9757 5.04297
1005 1 1 1.0755 11.6255 3.28837
597 1 1 18.5727 12.087 4.03235
1444 1 1 2.78357 12.4871 3.28354
1406 1 1 1.48867 12.4832 3.95031
246 1 1 3.26278 11.8573 4.26838
1008 1 1 4.72305 12.7537 4.31087
659 1 1 7.14554 11.843 3.17506
604 1 1 6.03981 11.9855 3.63385
661 1 1 8.25851 11.718 3.96973
1104 1 1 7.46356 12.3674 4.50042
621 1 1 9.17177 12.8226 3.26624
1182 1 1 9.89403 12.9738 4.05016
1983 1 1 8.55938 12.3397 4.64275
1509 1 1 11.2694 12.3221 2.88215
211 1 1 10.1548 12.2631 3.42331
7784 1 1 12.0661 12.3553 4.31201
663 1 1 12.6617 11.9586 3.22024
667 1 1 13.5229 12.3343 3.74861
1437 1 1 14.7395 12.3194 1.92821
669 1 1 14.5784 12.0223 4.26571
1042 1 1 15.6009 12.9952 3.46474
1030 1 1 16.8835 12.9358 3.58378
1149 1 1 18.0935 12.8827 3.23671
1368 1 1 18.7587 11.8425 2.69222
1880 1 1 17.6919 12.4798 4.47418
1007 1 1 1.66284 13.2167 4.82596
755 1 1 0.904182 13.504 4.06885
1163 1 1 2.09508 13.317 3.54816
686 1 1 3.61791 13.4089 3.15338
7900 1 1 5.71612 14.327 3.48974
1047 1 1 7.20292 13.4745 4.1109
7541 1 1 8.16656 12.7443 3.59237
627 1 1 7.11783 14.3396 3.43534
2343 1 1 9.62223 14.3019 3.41962
225 1 1 10.8693 13.3556 3.15722
1537 1 1 10.7246 14.216 4.09635
1108 1 1 12.279 13.8916 3.43879
630 1 1 12.6804 12.9282 3.6744
1070 1 1 12.6917 13.8636 4.46075
715 1 1 13.9141 13.228 4.17366
305 1 1 14.934 14.0717 3.34625
1183 1 1 14.7629 15.0709 4.24606
629 1 1 15.7275 13.9392 4.02897
678 1 1 17.0974 13.9963 4.06384
1004 1 1 16.523 13.2529 2.6444
1046 1 1 17.5115 14.085 2.98715
682 1 1 1.41311 15.4699 3.27383
280 1 1 0.0192034 15.6345 3.24683
727 1 1 1.22996 14.3536 3.08585
1514 1 1 2.28504 14.8639 3.26991
816 1 1 1.7823 15.5904 4.36827
773 1 1 3.42982 15.6937 3.54796
1131 1 1 3.54495 14.6113 3.59351
1217 1 1 4.35961 16.0363 3.23653
1453 1 1 4.51725 14.8768 3.11737
1530 1 1 5.56424 15.5806 3.33018
1133 1 1 4.8042 15.181 4.13669
286 1 1 6.46563 15.2203 3.68309
1531 1 1 7.68869 15.8262 3.79939
1170 1 1 8.41037 14.8467 3.55254
737 1 1 10.1551 15.3413 4.39107
1192 1 1 10.8866 16.4444 4.18423
668 1 1 12.6773 15.9156 2.90511
1506 1 1 11.5674 15.1725 3.56088
1059 1 1 13.2142 15.0483 4.07607
672 1 1 13.6255 14.8158 3.06265
1427 1 1 14.0646 15.6128 3.61656
1147 1 1 13.3525 16.3874 3.53632
234 1 1 15.7053 16.0818 2.71549
1596 1 1 15.2851 15.075 3.13141
310 1 1 16.4546 14.8329 3.45572
759 1 1 16.4696 16.5364 4.7334
2037 1 1 17.448 14.8853 3.8881
1561 1 1 18.4435 14.547 4.24923
791 1 1 18.1683 15.0621 2.85973
873 1 1 1.56301 16.4625 2.88366
1195 1 1 -0.00699715 16.4 4.09863
1233 1 1 0.930153 16.7738 4.08619
1566 1 1 2.26523 17.1096 3.5068
1172 1 1 3.16682 17.4351 3.03528
1129 1 1 2.1807 16.0171 3.50515
340 1 1 5.23962 17.2863 3.71382
1134 1 1 4.08326 16.987 3.94465
7615 1 1 5.99386 15.902 4.42179
605 1 1 6.54154 16.1555 2.79513
19 1 1 8.29816 16.9908 2.58228
260 1 1 8.01677 16.7856 3.46342
1064 1 1 8.70199 15.7943 4.29417
783 1 1 9.93604 16.952 4.24242
1176 1 1 10.1427 15.7398 3.40174
1472 1 1 12.5777 16.2389 4.37193
1226 1 1 11.7953 16.3486 2.90179
353 1 1 14.5605 16.4053 4.55218
716 1 1 15.8417 16.3825 3.92623
7923 1 1 15.0147 17.3115 3.87152
745 1 1 15.7154 17.4109 3.16726
437 1 1 16.7698 16.8193 3.53908
312 1 1 18.1322 16.8033 3.019
1999 1 1 18.2449 15.6019 4.12445
443 1 1 0.53272 16.5647 3.18711
412 1 1 2.06973 18.4726 3.68995
1251 1 1 3.59625 17.9347 4.18699
487 1 1 4.61218 17.7602 2.57121
815 1 1 4.69115 18.1545 3.65531
855 1 1 6.45234 17.6492 3.8933
1140 1 1 5.87116 18.2664 3.19688
7901 1 1 7.18994 17.449 3.16583
704 1 1 7.82444 18.1821 3.71121
1178 1 1 8.3791 18.8386 2.30557
417 1 1 9.38469 18.7352 2.88401
468 1 1 8.90392 17.7412 3.81787
1213 1 1 9.47717 0.22507 4.42061
821 1 1 10.3018 18.204 3.6835
1186 1 1 10.8998 17.6301 4.31965
11 1 1 12.481 18.3996 3.59485
1107 1 1 12.6553 17.4667 3.38633