ITEM: TIMESTEP
3600
ITEM: NUMBER OF ATOMS
8000
ITEM: BOX BOUNDS pp pp pp
0.0000000000000000e+00 1.8820720577620570e+01
0.0000000000000000e+00 1.8820720577620570e+01
0.0000000000000000e+00 3.7641441155241139e+01
ITEM: ATOMS id mass type x y z
917 1 1 0.20773 1.70902 0.794665
7524 1 1 2.87317 2.55164 1.88882
319 1 1 2.75909 18.3391 0.578358
770 1 1 5.91589 0.483819 36.8549
7215 1 1 2.19708 0.877132 0.372879
6 1 1 4.85643 0.578575 37.4286
7644 1 1 6.55088 1.73591 1.69217
7339 1 1 6.04808 0.495973 1.25216
7620 1 1 6.85261 0.493059 0.109835
343 1 1 6.73322 2.84651 0.353293
416 1 1 8.36451 2.26247 0.990029
937 1 1 9.31041 2.72029 1.3203
780 1 1 10.4159 17.1347 2.32618
15 1 1 11.2883 2.80929 0.703699
7661 1 1 8.57206 1.27732 1.26835
7667 1 1 9.51002 1.96488 0.542435
785 1 1 13.3451 17.755 1.23496
346 1 1 9.97713 1.32103 1.72816
22 1 1 10.2557 0.243054 2.49033
7619 1 1 12.5041 18.3062 2.10425
746 1 1 13.7656 0.0816751 0.862064
7665 1 1 12.3869 1.04368 37.3984
7601 1 1 17.8402 0.984888 0.838669
77 1 1 18.4227 1.52746 36.8414
7992 1 1 17.6342 2.78803 1.83275
356 1 1 17.4604 0.11591 1.82879
761 1 1 1.4894 3.8016 37.4414
7608 1 1 2.03069 1.80149 36.8241
408 1 1 2.64478 3.09083 35.8057
7631 1 1 4.5018 2.41228 1.79353
89 1 1 4.2586 2.73987 3.08092
857 1 1 5.84801 1.49141 2.49129
849 1 1 3.51091 1.32332 1.3423
935 1 1 4.47945 1.75417 37.1024
533 1 1 9.0919 4.80147 1.55336
371 1 1 7.63439 3.86977 0.523414
57 1 1 7.72101 2.40097 36.5584
7298 1 1 6.73235 3.13248 2.72864
55 1 1 8.82312 3.50868 1.04868
897 1 1 9.0568 3.06948 37.4634
1687 1 1 9.75932 3.52243 0.699205
838 1 1 9.61853 1.82294 2.55399
387 1 1 12.4867 1.58724 1.47293
1270 1 1 11.566 1.78835 0.950586
116 1 1 11.4159 2.33508 35.9154
65 1 1 13.6678 2.87626 0.04001
39 1 1 11.4145 1.85273 37.4465
431 1 1 15.6066 2.64095 0.199241
109 1 1 17.8932 1.82093 0.160906
7996 1 1 18.7474 0.38983 0.797904
430 1 1 0.268533 2.00697 2.57734
479 1 1 0.0535743 2.48882 37.422
841 1 1 0.91917 1.89671 1.46131
1289 1 1 2.75396 1.66959 0.312502
7678 1 1 2.18339 2.79949 0.285938
37 1 1 2.13377 3.06806 36.8215
885 1 1 4.5469 3.36843 2.18237
521 1 1 6.21819 4.16686 37.3005
900 1 1 5.05515 3.05819 37.1376
455 1 1 6.9592 3.00881 1.56106
494 1 1 9.52224 3.96287 36.6243
7657 1 1 7.98973 5.01907 0.408458
461 1 1 10.2954 2.64706 0.191488
28 1 1 11.5769 3.84871 0.970683
623 1 1 11.3577 4.49947 37.0978
505 1 1 12.3355 3.28483 0.0991784
7746 1 1 14.3054 3.98208 37.0981
72 1 1 15.643 3.60115 1.88342
7756 1 1 17.7651 6.16235 0.761787
7950 1 1 16.3797 2.39652 36.8571
73 1 1 16.4098 3.75995 1.24565
442 1 1 0.670801 3.96834 0.247457
127 1 1 0.611384 4.5647 35.6998
729 1 1 2.29107 5.75608 37.3295
7249 1 1 1.56356 4.70206 0.287834
7643 1 1 2.19847 5.79288 0.903304
933 1 1 3.04212 2.94721 37.5783
485 1 1 3.81033 6.36764 36.7296
7700 1 1 7.2897 5.18147 1.41221
209 1 1 5.57603 4.14736 1.33669
52 1 1 5.83418 5.6442 37.4805
7371 1 1 4.28139 4.95275 1.69472
497 1 1 7.0556 6.28773 1.52972
532 1 1 9.34765 5.66784 0.61618
575 1 1 9.09848 5.04946 36.7114
462 1 1 9.43148 6.03848 37.3237
537 1 1 10.1095 4.9707 0.352448
224 1 1 11.8134 5.22339 0.960713
633 1 1 10.0303 6.32255 1.62597
146 1 1 12.8674 6.4799 1.23472
152 1 1 14.1992 4.39482 0.657701
476 1 1 14.043 6.28602 0.440739
7392 1 1 13.1282 3.51934 36.965
80 1 1 16.4767 5.09466 36.3813
7236 1 1 16.9728 5.1007 1.39686
517 1 1 17.9569 3.81383 36.7683
554 1 1 17.012 6.94584 1.5156
7603 1 1 16.7924 6.05236 0.577637
520 1 1 18.818 5.0097 0.0485028
7715 1 1 18.2227 5.1648 1.6605
88 1 1 1.35956 5.7579 0.34845
444 1 1 17.8765 8.36385 1.3702
999 1 1 18.2309 7.4795 1.03382
524 1 1 2.78525 6.48039 0.25063
440 1 1 3.16509 6.21435 1.36749
7239 1 1 0.360512 5.79694 37.0311
10 1 1 7.39456 6.8637 3.73322
445 1 1 5.33668 6.80367 1.57198
99 1 1 8.4258 8.88392 35.7846
534 1 1 7.61752 7.55398 37.2112
7699 1 1 8.1352 4.56747 36.9313
7423 1 1 9.84772 3.11784 2.10998
502 1 1 12.4595 5.88524 0.244321
570 1 1 10.8773 6.55827 36.5495
7821 1 1 11.6383 6.35788 37.4919
989 1 1 13.2741 6.71787 37.3582
578 1 1 14.5124 7.21694 0.316445
7591 1 1 14.0367 7.39741 36.9724
7798 1 1 14.1213 7.06762 1.97569
1000 1 1 15.0796 5.25607 0.991824
7359 1 1 17.1794 7.67871 37.5728
1396 1 1 16.0864 9.39504 0.748217
559 1 1 17.5493 8.66399 37.4803
74 1 1 16.643 7.87141 36.6941
195 1 1 17.8582 6.6375 36.974
1329 1 1 18.296 7.7527 37.3669
44 1 1 1.4509 6.37392 37.0138
1409 1 1 2.0994 7.08872 0.850159
128 1 1 2.95127 11.3856 36.237
92 1 1 4.81046 8.79742 36.5046
81 1 1 3.84961 8.30872 0.777447
446 1 1 7.11936 7.19826 2.10895
1369 1 1 3.02437 7.58836 36.4035
983 1 1 6.16492 8.75758 1.75522
95 1 1 7.85232 8.61014 37.1677
607 1 1 10.8882 7.23412 37.5749
619 1 1 9.34554 9.56384 37.6398
7855 1 1 12.3377 7.03406 0.590764
1067 1 1 11.8276 8.30429 0.363071
7743 1 1 10.8875 8.43989 0.294821
186 1 1 13.6521 8.30391 0.079325
7800 1 1 16.8567 6.16185 36.8537
552 1 1 15.6407 6.31955 0.424345
634 1 1 17.8989 5.40336 0.00591875
549 1 1 15.4248 7.78552 0.31124
78 1 1 14.2126 9.11872 0.241789
1314 1 1 17.3288 9.11584 0.837323
7395 1 1 15.9689 10.6119 0.759425
7641 1 1 18.2109 6.09755 2.9054
1323 1 1 1.4525 8.05037 0.912123
7879 1 1 18.4879 8.38871 36.2115
239 1 1 2.84462 8.97534 0.851946
153 1 1 2.33775 8.37661 1.7576
1048 1 1 4.54973 9.99043 1.36444
197 1 1 2.74254 10.0271 0.287414
222 1 1 6.01833 8.658 0.506181
138 1 1 7.65044 8.41364 2.86075
7774 1 1 7.61291 10.3569 37.6335
1461 1 1 7.23234 8.29255 1.25134
7772 1 1 9.23488 9.84274 1.26152
1109 1 1 9.80984 10.5569 37.0122
7751 1 1 11.5873 9.65541 0.352606
303 1 1 11.2903 9.09999 2.41356
665 1 1 12.8636 9.99726 0.261705
7432 1 1 12.0195 9.31134 1.16564
265 1 1 12.5895 11.1086 36.0206
7466 1 1 12.0788 9.06049 37.1731
230 1 1 15.1525 9.1901 37.0245
276 1 1 15.0591 9.87806 0.223485
557 1 1 16.9902 10.9076 37.3555
4 1 1 15.7153 11.2718 0.00667676
636 1 1 15.1644 8.79211 0.380246
7758 1 1 17.0765 8.08135 2.02928
1450 1 1 18.3049 11.4805 3.00725
1521 1 1 0.826079 10.755 1.45666
598 1 1 3.55205 13.6939 0.44941
165 1 1 1.55763 11.1743 36.7974
1365 1 1 3.21313 11.3589 0.519705
7847 1 1 4.85647 10.3378 0.311629
7734 1 1 8.74365 10.4282 37.2618
536 1 1 6.97285 10.9123 1.00145
374 1 1 8.72104 11.4856 1.29861
976 1 1 11.06 12.4119 0.260037
228 1 1 10.5813 11.0652 1.37729
1063 1 1 12.19 10.4537 36.9905
7912 1 1 11.5993 11.2996 2.06496
7428 1 1 14.059 10.8276 1.37223
308 1 1 13.9168 10.2575 37.1433
235 1 1 13.6385 11.8294 3.31095
236 1 1 16.8077 13.1238 2.02318
7875 1 1 15.6338 12.546 36.9255
1389 1 1 15.0633 13.0304 2.45703
192 1 1 0.516196 12.253 2.60048
7804 1 1 16.9107 10.212 0.65332
962 1 1 17.4909 10.9532 35.3092
281 1 1 17.4136 9.70482 37.3595
84 1 1 18.4248 9.21259 1.50968
1154 1 1 1.16239 14.0971 0.112337
7880 1 1 0.854838 11.4999 0.599981
365 1 1 4.24067 11.4855 1.04445
1089 1 1 4.92076 12.7911 1.61562
613 1 1 5.96582 12.4692 2.08348
7499 1 1 5.12301 11.9695 0.765943
7808 1 1 7.54635 11.6795 0.42681
687 1 1 6.77005 13.1795 1.34787
1098 1 1 7.37116 9.06893 2.07643
296 1 1 7.94168 11.9502 1.86819
660 1 1 9.31652 12.3245 0.384646
705 1 1 11.4223 13.4414 37.6113
269 1 1 12.2101 12.5073 1.95492
7903 1 1 13.0349 14.1975 0.829495
273 1 1 12.1701 12.6727 0.421667
639 1 1 17.4054 13.0102 4.00785
1078 1 1 16.6934 11.3794 0.909819
1040 1 1 16.2338 14.2856 -0.0167128
7525 1 1 0.098 12.0424 37.3978
204 1 1 17.2714 14.7894 1.1015
404 1 1 3.14322 14.3329 2.09055
7835 1 1 2.01942 11.6738 0.804087
643 1 1 3.07015 15.2697 0.970471
1010 1 1 6.76852 13.5894 2.75221
287 1 1 5.55383 14.1611 0.323264
567 1 1 6.96007 12.0545 37.2175
342 1 1 7.01617 14.7843 1.53312
344 1 1 8.42481 14.732 1.71895
1573 1 1 7.61664 13.8233 2.00964
697 1 1 9.97253 11.2495 0.530733
602 1 1 10.3467 13.2697 0.717721
982 1 1 12.6085 15.6208 0.0585264
379 1 1 12.6505 15.0537 1.16966
7834 1 1 12.8162 12.0568 1.03765
7440 1 1 13.5478 12.4884 0.0664491
674 1 1 14.532 13.2969 0.457751
7561 1 1 16.0667 15.1527 1.04347
7925 1 1 16.7505 12.5853 0.846998
7844 1 1 15.1244 15.9505 1.02613
683 1 1 15.7363 13.1891 1.30338
7924 1 1 0.446295 10.6074 0.385966
397 1 1 18.4975 14.9129 37.2038
1125 1 1 1.56627 17.0883 0.361553
648 1 1 1.96225 16.153 0.32255
7888 1 1 4.39761 12.5695 3.35937
700 1 1 7.35465 16.5473 0.750424
332 1 1 5.87762 16.0501 1.05425
7930 1 1 6.89666 15.9596 37.4351
7937 1 1 7.40986 14.5193 -0.0120143
743 1 1 7.00847 12.9645 37.0847
249 1 1 10.5789 15.197 0.0540807
7858 1 1 9.71468 16.0934 0.306222
658 1 1 10.6708 16.3803 0.526293
7945 1 1 9.62283 15.3658 3.39011
666 1 1 13.5633 14.9186 37.5994
7551 1 1 14.7349 13.7897 1.76869
749 1 1 14.3517 16.5583 36.5539
7991 1 1 13.6061 15.2336 36.2066
314 1 1 16.6619 15.4425 0.25633
328 1 1 17.6112 17.7308 1.40873
7040 1 1 17.5063 16.39 1.74786
797 1 1 0.804391 16.1706 37.6762
732 1 1 3.48601 17.4508 37.6486
7650 1 1 0.953668 17.574 36.4692
721 1 1 4.02479 18.1947 0.921331
1128 1 1 4.17995 15.5308 1.58241
771 1 1 3.81033 16.5974 1.14491
85 1 1 4.69405 15.7592 36.1873
775 1 1 8.28106 17.2041 37.4134
1541 1 1 8.36723 17.8722 2.42005
7531 1 1 7.22385 18.4877 2.13068
698 1 1 9.85433 16.4973 1.25076
655 1 1 9.12127 17.1636 2.364
304 1 1 11.0344 15.1465 1.4552
7983 1 1 9.37781 15.4103 1.20514
7994 1 1 11.2372 16.6283 1.62558
675 1 1 13.3147 16.3228 37.6279
306 1 1 14.2789 16.9486 0.685062
7188 1 1 14.3135 17.6575 1.63805
7547 1 1 14.0412 17.9014 37.0199
7990 1 1 12.521 18.5792 37.5835
7881 1 1 14.8962 16.6112 37.3473
7228 1 1 16.3673 17.85 1.80019
351 1 1 16.9813 16.523 0.578739
7635 1 1 0.39644 18.7152 37.6547
7280 1 1 2.33523 0.0822911 1.58604
7998 1 1 2.35474 17.5398 1.58855
731 1 1 2.05555 0.138818 37.0184
7972 1 1 2.09861 16.5529 1.52183
448 1 1 4.39027 17.6982 37.0924
7971 1 1 5.08415 17.8973 1.63515
363 1 1 5.77039 16.1484 36.664
726 1 1 5.90337 0.170531 0.283807
60 1 1 6.77935 18.5503 0.810927
7539 1 1 7.17376 1.77087 0.926174
419 1 1 7.43075 0.762717 1.03327
67 1 1 8.27393 18.7644 0.641501
382 1 1 11.4948 18.0142 2.96344
829 1 1 8.12716 0.0770618 1.75885
742 1 1 9.74218 18.8129 36.4127
7938 1 1 10.0204 18.5325 1.36416
6836 1 1 13.4634 17.549 35.4999
31 1 1 11.5766 17.239 0.586928
7948 1 1 13.1676 17.9209 2.99769
7997 1 1 13.8784 1.08485 0.278124
7622 1 1 15.7267 17.3201 0.973119
352 1 1 15.7473 18.1672 0.248864
7515 1 1 15.1379 18.1232 2.04149
395 1 1 15.2663 17.5555 37.2179
7552 1 1 16.1363 1.05079 0.865353
752 1 1 18.5023 17.9721 3.94336
157 1 1 1.43354 0.539265 2.5931
40 1 1 0.879029 18.3721 4.35336
321 1 1 1.51642 0.987299 1.70045
1208 1 1 3.30824 0.1075 1.34285
41 1 1 4.66526 18.793 2.16861
764 1 1 4.00175 0.677177 0.45409
1168 1 1 5.19225 1.1232 1.65218
774 1 1 4.76687 0.13019 1.17815
385 1 1 7.89237 1.25412 2.54846
850 1 1 9.28688 1.83263 3.7122
7626 1 1 8.72964 1.88611 2.12846
422 1 1 12.2149 0.0790674 3.01543
824 1 1 13.5097 0.204166 2.72677
818 1 1 11.4754 17.3044 3.7223
1143 1 1 15.2187 1.52567 3.02386
784 1 1 14.503 2.17237 2.08536
389 1 1 14.7507 18.5901 2.87982
798 1 1 14.5314 17.4624 2.74274
1106 1 1 16.8809 1.88571 1.48349
1272 1 1 14.3713 0.968899 1.23004
115 1 1 17.491 1.33651 2.28575
835 1 1 0.50737 0.81645 2.05416
33 1 1 18.0191 17.3612 37.2107
833 1 1 18.418 1.40477 1.91488
324 1 1 1.89755 2.29374 1.52377
35 1 1 18.5205 2.84051 2.54235
362 1 1 2.90277 3.9891 1.52612
47 1 1 3.22142 2.50634 2.98318
491 1 1 3.68325 1.8402 2.40354
7616 1 1 4.76075 1.35098 2.77832
765 1 1 7.77955 3.55998 2.32917
7219 1 1 7.56842 2.12442 1.78999
93 1 1 7.69607 3.13997 3.45808
7698 1 1 8.63439 5.79273 2.32675
908 1 1 10.3155 2.36572 1.20992
470 1 1 10.0584 3.81462 4.43235
473 1 1 10.6232 3.56449 1.32049
869 1 1 11.1062 1.30128 2.17988
876 1 1 12.3325 2.84669 1.21144
30 1 1 13.5119 3.39656 0.926611
511 1 1 12.463 2.19949 0.441703
32 1 1 13.6505 1.55527 1.7176
787 1 1 15.2369 1.7149 0.850635
478 1 1 17.0392 4.34313 2.12011
514 1 1 16.1422 3.53698 2.88851
1675 1 1 17.7821 3.76143 1.2291
82 1 1 1.15137 3.96857 1.78915
899 1 1 0.909118 2.84982 1.95552
87 1 1 1.98033 4.64571 1.47572
488 1 1 3.40906 3.56134 3.22526
449 1 1 3.19705 6.69903 2.66908
475 1 1 2.54743 4.32446 0.372271
889 1 1 5.52913 2.48589 2.24741
454 1 1 3.07287 5.1941 0.987824
376 1 1 6.60287 4.59571 2.02373
504 1 1 6.08377 2.4077 3.43561
14 1 1 6.98084 4.03858 3.26871
500 1 1 9.90404 2.79778 3.06032
139 1 1 11.7404 2.06094 2.85043
460 1 1 11.849 3.18612 2.07499
556 1 1 12.4127 4.47319 1.4781
7636 1 1 13.8393 3.98733 1.70046
34 1 1 15.2744 2.73344 1.2762
506 1 1 14.5855 3.35658 0.538154
113 1 1 14.6346 3.53124 2.22882
786 1 1 15.1677 4.42989 2.92752
480 1 1 18.2389 3.01199 0.314642
155 1 1 1.22256 2.79184 0.844889
1232 1 1 0.106229 2.93679 1.10796
1751 1 1 18.4199 3.87527 3.04336
523 1 1 2.47708 6.02711 2.16735
441 1 1 1.05524 7.63049 2.04588
1290 1 1 3.39498 5.10534 2.56843
1337 1 1 3.80681 4.54858 0.580204
1254 1 1 6.43614 6.62249 4.68538
102 1 1 9.11807 4.27602 0.261065
945 1 1 7.78923 4.3354 1.40553
1295 1 1 6.2715 5.52685 2.83291
7611 1 1 10.6386 3.9516 0.266368
814 1 1 8.79181 2.98835 2.26546
217 1 1 11.0494 2.74491 2.76998
909 1 1 11.1465 5.74247 2.08108
978 1 1 11.1249 4.15714 2.14378
538 1 1 12.2445 5.11682 2.54091
150 1 1 13.4593 5.17064 0.736523
134 1 1 13.6644 7.26256 2.85117
420 1 1 13.2061 4.71344 2.19487
68 1 1 14.0877 4.41603 3.10773
471 1 1 14.8215 4.48031 1.80828
944 1 1 14.2287 5.88584 2.00174
7986 1 1 15.6095 4.29134 1.03107
594 1 1 15.6262 6.46163 3.9621
550 1 1 15.8553 4.7722 2.26496
519 1 1 17.4892 5.99097 1.90018
1315 1 1 0.00457149 3.81503 1.92005
522 1 1 1.11768 6.37132 1.94175
1285 1 1 1.33281 5.32797 2.17212
7718 1 1 2.2484 8.46103 2.75163
922 1 1 0.668402 7.04695 1.21169
637 1 1 4.21439 7.36956 2.5213
886 1 1 3.02671 7.40528 1.41333
90 1 1 3.96912 7.93972 3.35865
53 1 1 5.78669 8.87085 3.47265
171 1 1 7.94683 6.60423 1.7699
1334 1 1 5.16595 6.52933 4.12617
1774 1 1 5.9645 7.52003 2.71651
530 1 1 9.08581 7.07749 37.0932
91 1 1 9.88478 8.00259 1.55625
616 1 1 10.7733 4.87471 1.39975
177 1 1 10.6986 7.2305 1.35027
973 1 1 10.557 6.94578 2.73305
579 1 1 10.82 6.17108 0.954712
551 1 1 11.8334 6.26354 1.19152
1036 1 1 12.873 7.08086 2.05218
231 1 1 13.7723 8.14005 1.95745
546 1 1 15.0061 6.26856 1.28688
196 1 1 16.3207 5.09948 0.387664
979 1 1 16.3063 7.33392 0.681163
881 1 1 15.9866 5.79598 1.70114
1360 1 1 15.9529 7.1436 2.06114
808 1 1 0.607734 5.98892 1.06404
1038 1 1 17.4396 7.47449 2.83457
481 1 1 18.7042 6.04703 1.7699
1806 1 1 0.82475 7.01033 37.5188
1488 1 1 2.05298 7.2048 2.00096
131 1 1 3.36863 8.85593 2.10787
645 1 1 4.8869 8.38046 0.441151
1045 1 1 3.76329 7.97785 1.94074
611 1 1 6.75579 8.06601 3.48688
1401 1 1 3.56584 7.17343 37.6244
1339 1 1 6.36591 6.71608 3.19901
1019 1 1 9.29986 7.15383 3.90301
647 1 1 8.36612 9.42483 37.5286
1327 1 1 8.97843 7.40587 1.36179
498 1 1 10.886 7.87678 3.08128
140 1 1 11.4954 7.27948 2.11749
1023 1 1 12.7418 8.56908 1.22576
1429 1 1 13.5274 7.6185 0.779046
7714 1 1 15.3285 6.96195 2.78976
958 1 1 15.4315 7.63314 1.30383
563 1 1 16.691 8.26059 0.968496
200 1 1 18.3531 8.35824 2.59352
191 1 1 0.278591 8.06708 0.447105
124 1 1 1.89599 8.01915 37.4774
241 1 1 1.05721 8.69437 1.80534
564 1 1 2.90706 9.87045 1.63697
7684 1 1 4.07652 9.54008 0.433756
1366 1 1 5.58686 10.7268 0.820177
1287 1 1 3.90924 11.3007 2.37199
164 1 1 4.9604 8.79616 2.03996
357 1 1 6.72057 9.71516 2.77649
7841 1 1 4.6033 7.44235 1.06898
215 1 1 6.91247 9.26066 1.20571
566 1 1 6.78263 8.19756 2.3821
890 1 1 8.1443 7.91148 1.55088
178 1 1 10.9172 8.21589 1.8558
1417 1 1 8.36942 10.486 1.71428
142 1 1 10.927 10.1698 1.83348
1105 1 1 10.8677 9.19587 1.19825
7748 1 1 9.07277 8.67863 1.34812
7827 1 1 10.8182 10.0876 3.30874
626 1 1 14.5492 8.05343 0.905482
188 1 1 13.8841 8.94753 1.26463
916 1 1 14.2134 10.1371 2.13775
568 1 1 0.127136 8.24741 1.6146
202 1 1 1.85258 10.6273 0.892708
1053 1 1 4.08888 9.45597 2.21401
233 1 1 4.96146 11.729 1.75531
1003 1 1 5.53253 9.52489 1.05524
925 1 1 6.10529 10.2634 2.07008
1061 1 1 8.13548 9.33031 3.63514
1420 1 1 9.09703 10.6144 0.55562
7817 1 1 7.08336 13.7824 0.638234
615 1 1 6.93342 10.8441 2.2631
333 1 1 9.46031 10.9338 2.64194
7862 1 1 8.97823 9.34115 2.36835
7780 1 1 11.7806 10.276 2.54197
624 1 1 10.2091 8.73576 3.46251
257 1 1 10.6113 12.1408 1.95565
1076 1 1 13.9931 9.98256 0.80564
614 1 1 11.4842 11.1435 3.19254
261 1 1 12.5797 11.1005 3.03149
600 1 1 13.2992 12.0891 2.15399
2238 1 1 16.5194 12.1009 1.72171
240 1 1 17.2837 11.5883 3.77283
270 1 1 17.2258 11.9418 0.178242
7921 1 1 1.59802 12.4476 1.53059
242 1 1 0.968645 10.2428 2.29602
7928 1 1 3.53812 10.7962 1.5245
968 1 1 18.371 12.9853 5.14587
358 1 1 5.9897 11.3526 1.82515
288 1 1 2.81243 11.8236 1.52912
7843 1 1 6.23937 11.6313 2.89237
337 1 1 6.87582 10.9696 5.28579
1532 1 1 7.02412 12.3232 3.4447
574 1 1 7.96161 12.1267 4.21184
216 1 1 8.98244 10.0203 3.48078
691 1 1 7.72785 12.8849 2.74749
16 1 1 8.75555 13.4809 2.88093
256 1 1 9.63864 12.8691 1.31595
259 1 1 11.2991 13.0982 1.06247
694 1 1 10.3972 10.7702 2.52896
254 1 1 12.0566 12.2197 3.03216
1069 1 1 12.5578 13.7323 2.18693
592 1 1 14.4715 12.4057 37.0352
1074 1 1 14.6348 10.9771 0.58333
271 1 1 14.2063 11.8226 1.09358
7840 1 1 15.2137 12.1218 1.32778
7838 1 1 14.5277 11.557 2.08975
1035 1 1 17.3178 14.3113 0.0915685
677 1 1 17.8636 13.1293 37.4659
1001 1 1 0.993114 11.0635 3.23678
720 1 1 17.9959 12.2424 2.01918
7442 1 1 0.659288 14.6928 35.9721
758 1 1 17.4872 13.5157 0.763344
7964 1 1 0.714727 14.3565 1.198
7482 1 1 3.46292 13.1417 1.47904
685 1 1 4.02334 13.7018 2.29758
1529 1 1 4.20143 14.3841 1.16212
1081 1 1 6.1029 12.8454 3.46999
696 1 1 5.15608 14.7814 1.71264
7975 1 1 7.35933 14.6886 2.6959
740 1 1 8.98588 15.1264 2.5514
7856 1 1 8.40183 15.587 4.0215
341 1 1 8.13245 14.8061 4.68738
213 1 1 9.06455 13.7966 1.22061
7864 1 1 10.1213 14.2643 0.448098
1908 1 1 10.4948 15.2089 2.42593
229 1 1 10.0161 14.6267 1.51552
7829 1 1 13.2118 13.1756 1.13152
747 1 1 14.3242 13.0851 3.27879
277 1 1 11.6372 13.0523 3.31261
317 1 1 12.9273 14.8125 3.39644
278 1 1 16.8257 15.1094 2.29857
7480 1 1 14.23 12.6756 1.50832
1474 1 1 18.683 16.8151 1.77551
724 1 1 1.22851 14.3546 3.15177
7920 1 1 15.4744 15.3825 1.96601
769 1 1 0.403874 14.853 3.43305
282 1 1 0.417966 13.7936 2.01437
325 1 1 1.81586 14.4296 1.33081
243 1 1 3.47181 12.6298 2.83421
1136 1 1 5.68198 14.0676 2.33279
1526 1 1 3.07135 15.8991 2.0198
411 1 1 6.04742 15.3688 2.12767
373 1 1 7.16702 15.745 1.78367
1145 1 1 8.45966 15.5898 0.936292
7214 1 1 7.45212 16.7539 3.0392
7543 1 1 9.17701 14.2475 2.20488
1533 1 1 12.4178 16.1897 1.85858
736 1 1 11.3838 14.5825 0.224901
662 1 1 11.5294 14.7777 2.27589
1151 1 1 12.892 15.0284 2.16073
699 1 1 10.9574 13.9453 1.63683
670 1 1 15.0051 16.1954 3.02534
1153 1 1 13.9168 14.7827 2.80093
7870 1 1 16.7703 16.7936 2.46838
590 1 1 15.9026 14.0126 1.97887
1199 1 1 18.4735 13.9516 0.578314
394 1 1 18.5877 16.0068 2.90243
7887 1 1 0.679937 16.3349 2.52605
399 1 1 1.48223 17.221 2.28619
1198 1 1 1.10276 17.3867 1.25427
330 1 1 4.27716 15.3617 3.79915
812 1 1 4.7134 17.4285 0.642689
370 1 1 4.93247 16.1325 0.849685
7573 1 1 5.48939 14.8296 3.19934
7610 1 1 6.29777 16.7484 0.343702
29 1 1 6.81468 0.884044 2.43518
777 1 1 6.1395 17.5633 2.95579
690 1 1 7.95221 17.4041 1.68748
381 1 1 8.16229 16.0645 1.95781
1114 1 1 9.34039 16.9963 3.46886
701 1 1 9.13977 17.9732 4.36307
1142 1 1 13.1495 16.1643 0.99417
7913 1 1 14.4801 0.0344985 1.76843
7125 1 1 15.8749 16.9192 3.40363
709 1 1 15.7674 17.8367 4.24933
1158 1 1 0.555409 18.3523 1.14552
837 1 1 15.1878 17.051 1.83478
766 1 1 18.7216 0.0703994 2.04418
12 1 1 18.5752 17.6006 0.418875
436 1 1 1.53823 18.2182 2.65307
7651 1 1 2.40763 16.8183 3.16813
336 1 1 3.05054 17.5854 3.17495
5 1 1 3.96696 17.7733 2.25815
1301 1 1 5.877 18.0818 0.861568
27 1 1 7.45599 0.0422118 3.02231
779 1 1 8.42771 0.306682 2.81357
820 1 1 9.28836 -0.00323108 2.16779
7628 1 1 8.22291 17.3846 4.05795
7627 1 1 9.83099 18.742 3.30951
316 1 1 11.6548 0.660139 1.24658
64 1 1 13.1052 16.9082 1.9744
7478 1 1 14.1324 1.13414 2.72374
7872 1 1 13.9235 16.5685 1.60126
7155 1 1 16.1013 17.6964 2.82426
1110 1 1 18.0073 0.558448 2.81882
364 1 1 16.5878 18.7089 2.45066
753 1 1 17.689 17.5209 2.52958
1954 1 1 0.578956 16.7629 3.39128
843 1 1 3.06981 18.5879 3.74399
853 1 1 2.01191 18.7617 3.70069
292 1 1 3.88646 0.749653 2.29024
1932 1 1 3.15462 18.7071 2.64777
1260 1 1 1.56634 0.195589 5.81903
772 1 1 4.68713 0.492614 4.91972
452 1 1 5.598 1.31993 3.7307
861 1 1 6.47824 0.710658 3.59006
734 1 1 7.206 1.48481 4.88527
17 1 1 6.89124 1.97705 2.65667
1180 1 1 8.24843 1.74823 3.89407
410 1 1 7.74543 18.2092 4.50107
906 1 1 10.6751 1.36457 4.54185
1138 1 1 12.5695 0.0304071 4.08115
7984 1 1 13.6146 16.9626 2.99711
26 1 1 13.5299 1.2288 3.51124
792 1 1 13.6126 0.588549 6.01887
949 1 1 15.5326 1.75277 4.00107
433 1 1 15.6382 0.400297 2.78738
702 1 1 14.5461 0.709685 4.98194
800 1 1 17.0367 0.585137 3.54279
1640 1 1 17.5291 1.36408 4.07397
794 1 1 18.3002 1.44272 4.66398
1160 1 1 1.34557 1.69128 2.97244
1670 1 1 16.4842 2.01039 2.39189
1644 1 1 2.09482 3.09293 2.98469
1637 1 1 18.3974 5.0304 2.87581
913 1 1 2.1217 3.24736 1.29577
1201 1 1 3.34537 2.83931 0.982648
802 1 1 2.11792 1.44715 3.75011
1250 1 1 5.80847 0.487135 2.28713
1130 1 1 7.98939 2.30138 2.88985
863 1 1 7.2446 1.49754 3.63899
854 1 1 9.01024 2.09947 5.23847
810 1 1 8.20603 1.86774 5.74606
71 1 1 11.6382 0.974347 3.90094
1345 1 1 10.1837 1.08426 5.67567
7632 1 1 12.919 1.18379 2.50847
1377 1 1 11.578 2.49193 4.67646
7779 1 1 11.1841 2.47091 1.77766
151 1 1 14.3607 1.51978 4.40997
1597 1 1 12.5603 2.18139 2.26692
465 1 1 13.1212 2.30723 3.32654
1713 1 1 14.242 2.49361 0.918053
910 1 1 15.3359 2.88046 3.86237
1265 1 1 16.8451 3.72485 3.86876
2432 1 1 16.6049 2.96128 1.98912
2197 1 1 16.9489 4.63104 3.14745
2029 1 1 17.3386 3.162 2.83493
852 1 1 4.02919 6.31748 2.1101
883 1 1 1.83767 6.62862 4.28601
1241 1 1 0.670368 7.38924 4.60516
450 1 1 2.655 3.87788 2.6713
7697 1 1 6.18595 3.53272 0.850125
1210 1 1 4.53669 1.6183 4.13646
1206 1 1 3.84474 2.6183 4.14684
7607 1 1 5.93838 2.76039 4.36653
1299 1 1 4.1719 5.17177 4.15879
1181 1 1 5.96791 3.84381 3.26331
104 1 1 5.06244 3.27459 3.88681
7 1 1 8.80199 4.105 2.39595
971 1 1 8.94514 3.32338 3.3415
588 1 1 11.9124 4.26919 3.64274
862 1 1 12.3725 3.10712 2.88706
427 1 1 12.8122 3.39353 1.93646
1196 1 1 13.6814 2.72984 1.74902
558 1 1 14.209 2.84808 4.13719
474 1 1 15.4746 2.72695 2.75733
112 1 1 16.4033 2.6554 3.3897
603 1 1 2.46964 5.42046 3.45552
1673 1 1 3.29779 7.22609 4.61987
959 1 1 18.7099 7.29627 2.57798
887 1 1 3.0877 4.46898 4.11467
98 1 1 2.30097 4.97531 2.45932
1280 1 1 3.90323 4.15333 2.47733
767 1 1 4.9039 4.57921 3.79489
1340 1 1 6.79625 3.31241 4.0619
1739 1 1 7.57036 5.03462 2.31888
1310 1 1 8.27915 5.4669 1.41032
938 1 1 10.209 5.39492 2.50941
1385 1 1 9.7595 2.83777 4.19903
1714 1 1 11.2463 6.502 3.50187
1194 1 1 15.2512 5.98062 2.45848
912 1 1 13.3871 3.47863 2.85311
7754 1 1 13.0791 4.35358 3.44417
515 1 1 14.578 3.58424 3.23055
156 1 1 15.825 3.77099 4.71934
1316 1 1 16.0951 5.25516 3.3958
1033 1 1 16.4054 5.843 4.13758
120 1 1 0.690083 3.29128 4.17258
1685 1 1 18.4492 3.39774 6.08407
486 1 1 17.827 6.52373 3.8307
966 1 1 4.06589 8.01454 4.46186
884 1 1 1.47518 5.46272 4.71583
848 1 1 2.86498 6.28941 4.09356
1769 1 1 4.68627 6.11305 2.81545
1780 1 1 4.15676 5.7369 5.66769
1373 1 1 5.73174 6.03298 2.2021
975 1 1 4.61946 6.89001 4.9763
1296 1 1 5.62224 7.77962 5.3898
1026 1 1 8.83275 6.4027 1.34548
1331 1 1 7.3583 4.99175 3.30381
1413 1 1 9.6044 3.90495 2.85313
555 1 1 9.53439 7.39564 2.73522
1374 1 1 9.59992 6.34863 2.5974
1066 1 1 9.77051 5.81293 3.39646
553 1 1 9.76133 4.73131 3.79278
7712 1 1 11.8224 7.30187 3.14667
509 1 1 12.4875 6.73361 3.63825
1350 1 1 13.8563 6.63873 3.85441
995 1 1 14.6809 6.04345 3.2981
870 1 1 14.9016 8.64963 5.50036
193 1 1 14.884 7.32679 3.62906
593 1 1 15.8157 7.76222 3.30645
1443 1 1 16.5353 6.92343 3.58015
560 1 1 18.2265 7.31073 4.71173
483 1 1 1.51814 4.90144 3.17822
7721 1 1 17.9595 8.01311 3.91872
489 1 1 1.9174 7.53883 3.40118
531 1 1 3.19243 9.70498 2.86439
1414 1 1 3.14463 8.66 6.07519
46 1 1 4.12125 8.95185 5.53342
1330 1 1 3.03988 7.86365 2.72067
1041 1 1 5.30031 9.72051 2.98127
936 1 1 3.32569 5.91771 5.05738
580 1 1 4.6566 8.84961 2.95261
180 1 1 7.59613 7.98719 5.4058
1302 1 1 5.97932 4.94329 3.90961
7850 1 1 8.75521 7.99791 5.39857
865 1 1 6.04652 7.87682 6.48616
1017 1 1 10.1976 9.44271 1.87919
1308 1 1 8.22964 6.45709 3.05793
628 1 1 12.8394 7.77367 4.27603
606 1 1 12.7448 8.2708 3.23272
108 1 1 14.8137 8.13795 2.96559
1020 1 1 11.4461 7.31105 4.34293
1425 1 1 10.714 5.95716 5.7537
942 1 1 11.4751 5.43247 5.44561
1037 1 1 14.8058 8.26238 1.95871
1441 1 1 14.8122 7.88374 4.52075
960 1 1 16.6526 7.93731 4.19069
1353 1 1 16.2511 8.18992 2.49767
2357 1 1 17.2184 8.68154 2.75961
997 1 1 17.8023 10.0757 2.3404
1757 1 1 17.2481 8.79901 5.02577
1802 1 1 1.11661 9.27581 2.66218
315 1 1 0.135023 10.4919 2.73322
1034 1 1 0.211962 8.46559 3.80675
1442 1 1 0.714611 8.2493 2.80096
1322 1 1 0.352088 9.47831 4.14084
1724 1 1 3.06678 8.95502 4.61929
1085 1 1 7.06648 9.44797 3.8805
130 1 1 8.09941 8.24651 3.84089
539 1 1 8.59702 8.29221 2.34949
653 1 1 7.99974 8.4478 0.591805
649 1 1 10.3774 7.87236 4.24671
587 1 1 9.01881 8.62173 3.28652
586 1 1 9.11735 9.77991 4.44232
232 1 1 9.74009 8.29002 2.57308
136 1 1 11.0844 8.61623 4.1381
1031 1 1 11.7343 10.6482 1.24153
1065 1 1 10.2787 9.20452 4.57537
1057 1 1 12.5306 5.36254 5.02103
1073 1 1 12.575 10.2643 1.79267
591 1 1 13.4195 9.32295 2.2935
914 1 1 15.778 8.69851 3.52047
1395 1 1 15.4042 9.55542 2.07142
7397 1 1 16.4491 9.6188 1.72041
961 1 1 0.096958 10.9707 4.40218
1405 1 1 1.89926 9.22823 3.70025
1403 1 1 18.5647 9.14239 3.03087
1410 1 1 2.19111 9.63185 2.65093
1484 1 1 1.57704 12.0925 2.64415
1282 1 1 5.19377 12.2188 2.61437
1820 1 1 4.10419 10.5063 4.90311
1002 1 1 6.89612 10.6164 3.24876
1050 1 1 7.75896 10.2181 2.71754
1415 1 1 6.11897 11.3704 4.36887
932 1 1 5.85057 10.1045 5.21707
1091 1 1 6.18417 14.4671 4.74756
610 1 1 7.89805 10.3672 3.81822
1102 1 1 8.45222 13.1464 1.8048
1135 1 1 7.93443 11.6461 2.78444
1822 1 1 9.52867 11.6728 3.56587
622 1 1 11.7602 11.1387 4.46853
993 1 1 15.1107 10.1604 1.16839
1430 1 1 13.1939 10.8077 4.30964
1538 1 1 14.0794 10.076 3.11073
1072 1 1 15.3563 10.35 2.79038
2234 1 1 15.5657 11.1341 2.0282
1825 1 1 15.7893 11.117 3.29337
311 1 1 16.0338 9.49349 2.95246
608 1 1 15.7423 12.5425 3.24303
1475 1 1 17.4567 10.8979 3.01544
757 1 1 0.126447 12.0684 5.2171
1005 1 1 1.60964 11.0728 2.42569
597 1 1 17.1613 12.8298 5.09187
1444 1 1 4.88792 11.1034 3.68713
1406 1 1 0.32947 12.751 4.41426
246 1 1 2.75439 11.8555 2.7502
1008 1 1 5.95706 13.2868 4.6258
659 1 1 7.33031 11.3754 4.24611
604 1 1 7.23027 11.1461 6.329
661 1 1 7.90401 10.7611 4.87166
1104 1 1 8.00406 12.5576 6.42073
621 1 1 7.85346 14.0561 3.91211
1182 1 1 10.2137 13.4361 2.11437
1983 1 1 10.3839 13.1623 5.94849
1509 1 1 10.4744 12.511 3.06898
211 1 1 10.1093 10.8074 4.34581
7784 1 1 11.1345 12.8534 4.31156
663 1 1 12.0418 12.347 4.4568
667 1 1 13.4473 13.1281 4.63268
1437 1 1 14.8844 10.7173 36.9988
669 1 1 13.7707 10.9569 2.537
1042 1 1 14.8 12.1154 3.04466
1030 1 1 16.5917 13.8732 3.78139
1149 1 1 18.4219 13.9127 3.60114
1368 1 1 16.5178 11.8765 3.22021
1880 1 1 17.4979 12.4618 5.92034
1007 1 1 1.62037 13.0722 4.67983
755 1 1 1.41381 12.9889 2.89107
1163 1 1 2.72097 12.7954 3.53233
686 1 1 4.96651 13.2332 2.8896
7900 1 1 6.65021 14.435 3.44386
1047 1 1 6.77011 12.3248 4.90759
7541 1 1 7.8659 11.7818 5.41156
627 1 1 7.00755 13.313 4.18768
2343 1 1 8.30351 14.8407 3.2882
225 1 1 11.2621 12.8917 2.21298
1537 1 1 10.7643 14.92 3.42014
1108 1 1 13.5623 13.874 2.26239
630 1 1 13.823 14.2045 5.49248
1070 1 1 10.7707 13.8951 4.81617
715 1 1 14.6592 13.4965 5.05139
305 1 1 13.4534 13.9884 3.49356
1183 1 1 15.9802 15.3238 4.7882
629 1 1 14.7169 13.9983 2.76993
678 1 1 14.6136 13.9785 3.75627
1004 1 1 16.3989 13.8783 0.924774
1046 1 1 18.2299 13.2482 1.55415
682 1 1 2.23172 16.0797 3.99007
280 1 1 0.599655 15.146 2.25072
727 1 1 1.39438 13.352 1.81459
1514 1 1 2.33205 15.2744 2.87859
816 1 1 1.04838 15.2387 4.42034
773 1 1 4.45482 14.8159 4.71076
1131 1 1 4.43072 14.5246 3.03699
1217 1 1 5.12391 16.0536 4.0597
1453 1 1 5.54858 13.6439 3.72208
1530 1 1 6.69337 16.0348 4.02132
1133 1 1 7.68809 16.2281 3.92029
286 1 1 7.42494 15.5302 3.34909
1531 1 1 7.23577 14.9713 4.16591
1170 1 1 8.44291 16.4204 3.23996
737 1 1 10.1887 16.1137 3.80397
1192 1 1 11.1795 15.8461 2.83763
668 1 1 14.3312 15.8386 0.326214
1506 1 1 9.9859 16.0664 2.48015
1059 1 1 13.0081 14.4972 4.41958
672 1 1 13.3489 12.9596 3.52528
1427 1 1 14.8202 15.2015 3.67249
1147 1 1 15.5637 16.8331 4.32461
234 1 1 16.3897 15.9904 3.29315
1596 1 1 15.858 14.3371 2.99589
310 1 1 17.4407 15.9931 2.92165
759 1 1 17.3176 16.2635 5.08918
2037 1 1 17.3412 14.0609 3.00557
1561 1 1 18.4456 14.2225 4.59032
791 1 1 18.3516 14.2306 2.04674
873 1 1 1.78117 16.0942 2.8412
1195 1 1 18.5507 16.4869 4.74321
1233 1 1 0.865314 17.3536 4.81172
1566 1 1 1.98292 18.4654 4.92216
1172 1 1 4.54359 16.655 2.11747
1129 1 1 3.54843 16.6096 2.73944
340 1 1 4.26728 17.673 3.20869
1134 1 1 4.06143 0.20773 3.0801
7615 1 1 5.3556 16.6311 5.06044
605 1 1 5.93051 16.5732 2.16848
19 1 1 6.92745 17.4089 2.08303
260 1 1 7.44768 17.8285 3.25816
1064 1 1 9.52752 14.9914 5.74057
783 1 1 8.8954 18.1461 5.73478
1176 1 1 9.21219 15.511 4.73671
1472 1 1 13.489 15.8084 4.83283
1226 1 1 12.6441 15.8969 2.94919
353 1 1 14.4786 16.7286 5.28959
716 1 1 15.7871 17.6761 5.41571
7923 1 1 14.8956 17.6959 4.89229
745 1 1 14.887 17.3787 3.80274
437 1 1 16.7054 17.2727 3.99352
312 1 1 17.8924 16.3058 3.78907
1999 1 1 18.0557 15.3654 4.40916
443 1 1 0.133473 15.8523 3.9789
412 1 1 1.48721 17.2938 3.41465
1251 1 1 1.7009 17.1827 5.50804
487 1 1 4.33604 15.7783 2.89026
815 1 1 5.55828 17.6342 5.76821
855 1 1 6.47147 18.6543 2.94108
1140 1 1 5.23844 0.116088 3.43691
7901 1 1 6.08982 18.3136 1.92899
704 1 1 6.27109 17.4112 4.63589
1178 1 1 8.13366 2.96096 0.355925
417 1 1 8.79784 1.15971 2.96084
468 1 1 8.54566 16.5005 4.66748
1213 1 1 8.39675 18.3284 3.6156
821 1 1 10.0519 0.942975 3.36998
1186 1 1 11.033 17.6211 4.77461
11 1 1 13.6227 17.785 3.87817
1107 1 1 12.0584 16.8809 2.72492