ITEM: TIMESTEP
400
ITEM: NUMBER OF ATOMS
8000
ITEM: BOX BOUNDS pp pp pp
0.0000000000000000e+00 1.8820720577620570e+01
0.0000000000000000e+00 1.8820720577620570e+01
0.0000000000000000e+00 3.7641441155241139e+01
ITEM: ATOMS id mass type x y z
1 1 1 0.92105 18.6249 36.4593
2 1 1 0.429524 1.03272 36.9325
3 1 1 0.491779 0.715863 0.320989
4 1 1 1.01524 2.31845 0.0593223
5 1 1 1.57516 0.28766 37.507
6 1 1 4.78754 1.92838 0.363026
7 1 1 2.7485 1.80033 37.5474
8 1 1 0.84051 1.49028 0.863253
9 1 1 4.05723 1.20886 35.8087
12 1 1 2.97532 0.950335 0.688987
10 1 1 4.37963 0.536723 1.04067
11 1 1 6.47409 0.839376 0.618338
13 1 1 5.10705 0.0449549 0.522899
16 1 1 5.87577 1.19943 37.4534
14 1 1 6.80259 3.14302 0.730165
15 1 1 6.98444 17.7725 1.70395
17 1 1 6.6664 17.8411 37.5878
18 1 1 8.59 1.80221 35.7889
19 1 1 8.01523 18.199 0.770386
20 1 1 7.20996 0.0281513 0.334152
21 1 1 9.30442 16.6528 0.544183
24 1 1 10.3764 18.7366 0.225767
22 1 1 11.1047 1.09394 37.0789
23 1 1 11.1372 18.2165 37.2604
25 1 1 11.5897 0.490028 0.480606
28 1 1 10.7501 1.66297 0.268993
26 1 1 11.5902 1.36208 1.05414
27 1 1 12.337 0.55893 2.51803
29 1 1 12.2924 18.3473 37.4144
30 1 1 14.289 1.43361 0.431274
31 1 1 13.4499 18.5073 0.581239
32 1 1 14.112 0.677796 1.42085
33 1 1 15.1554 1.95327 37.3016
36 1 1 15.057 1.85181 0.992221
34 1 1 16.5924 3.151 36.7679
35 1 1 17.2788 1.19626 0.8364
37 1 1 16.545 0.874926 0.157668
40 1 1 16.6822 2.44212 0.189455
38 1 1 18.7129 0.0937982 37.1379
39 1 1 17.6514 0.338808 1.58058
41 1 1 1.67023 3.87534 37.4245
42 1 1 1.22121 4.43287 0.764065
43 1 1 0.947447 1.59188 2.27919
44 1 1 0.243272 2.86082 1.43936
45 1 1 1.72144 2.14079 0.832247
46 1 1 1.28944 3.24592 1.38229
47 1 1 3.62821 1.89126 0.526882
48 1 1 2.81847 3.56153 37.2667
49 1 1 5.30414 3.79915 0.111311
52 1 1 1.70794 2.27141 37.0544
50 1 1 3.64097 3.27226 0.293403
51 1 1 5.69948 1.86764 0.904943
53 1 1 5.95678 2.35557 37.3749
56 1 1 4.64056 2.22369 2.16897
54 1 1 6.82719 3.14363 37.2104
55 1 1 5.91271 2.63397 1.68231
57 1 1 8.07587 0.365842 37.5321
58 1 1 9.39955 2.70821 37.0845
59 1 1 9.65614 1.33551 0.260701
60 1 1 7.67194 0.861826 0.93446
61 1 1 8.21421 2.31343 34.7454
64 1 1 10.864 2.34653 1.24837
62 1 1 11.4756 3.31058 36.9021
63 1 1 11.2716 0.896798 2.49267
65 1 1 12.4308 2.23734 0.802865
68 1 1 12.407 3.61272 0.489346
66 1 1 13.2024 2.82481 37.5583
67 1 1 12.0209 1.72881 37.6259
69 1 1 13.9298 3.51944 35.9415
70 1 1 14.4816 4.30412 36.4744
71 1 1 14.4324 2.66504 0.482435
72 1 1 13.8662 3.48031 0.775135
73 1 1 14.2587 2.24292 36.8492
76 1 1 14.7965 3.26771 1.21826
74 1 1 15.477 4.14079 0.877639
75 1 1 15.3354 2.86181 0.0635551
77 1 1 18.7409 1.55953 37.5266
80 1 1 16.4687 3.69195 0.303619
78 1 1 17.8985 3.99479 0.3653
79 1 1 17.2322 2.16128 1.40283
81 1 1 17.9459 4.95043 37.1413
83 1 1 2.38695 4.49032 37.2139
85 1 1 3.37875 4.1487 36.5614
87 1 1 2.53069 3.43155 0.921679
89 1 1 4.08387 4.5877 0.728949
91 1 1 5.05572 4.2865 1.03397
93 1 1 5.64153 4.53283 36.6727
95 1 1 7.31179 4.39294 0.0213545
97 1 1 7.91623 2.02503 0.457986
99 1 1 7.36854 3.79906 1.15312
101 1 1 9.30179 3.83749 37.0199
103 1 1 11.5817 3.13214 1.22198
105 1 1 11.0834 4.0475 0.72257
107 1 1 12.8761 4.56634 0.336514
109 1 1 13.4613 3.94351 37.4241
111 1 1 14.11 4.5159 0.97385
113 1 1 14.49 4.14901 37.5841
115 1 1 17.3105 3.48587 1.13645
117 1 1 17.8846 3.43073 36.6607
119 1 1 18.0817 2.8794 1.80761
82 1 1 0.130786 4.48668 0.768113
84 1 1 17.637 5.82175 1.67408
121 1 1 1.07516 6.23558 0.85449
123 1 1 2.33287 7.66917 0.565805
86 1 1 3.63286 4.52731 37.4748
88 1 1 0.217461 5.68293 1.39136
125 1 1 2.17306 6.73917 0.935895
127 1 1 2.31342 5.4827 0.827103
92 1 1 4.38181 4.45974 1.74903
129 1 1 4.27558 6.65783 37.5711
90 1 1 5.29915 4.80368 0.0161548
96 1 1 5.80596 4.952 1.00946
131 1 1 4.40057 5.40758 1.10959
133 1 1 5.02241 5.91235 37.5956
94 1 1 6.09525 5.38527 37.2066
135 1 1 6.62373 5.80305 2.02329
98 1 1 9.34828 3.73133 1.23065
100 1 1 8.45322 4.34201 0.391107
137 1 1 9.17874 6.17292 37.1272
139 1 1 9.32078 4.92346 0.7993
104 1 1 9.973 3.97689 0.288447
141 1 1 8.07469 4.39298 36.5363
102 1 1 10.7028 4.85231 0.198397
108 1 1 12.0931 4.57156 1.86821
143 1 1 8.98364 5.16663 37.352
145 1 1 11.3273 5.64716 37.1822
106 1 1 12.0486 5.06937 0.357365
147 1 1 11.9654 6.41127 0.582075
110 1 1 13.6712 5.16631 37.4109
112 1 1 14.1623 5.51345 0.592655
149 1 1 12.8839 5.87072 0.341123
151 1 1 14.9121 4.29394 1.87384
116 1 1 15.3037 5.78856 1.24548
153 1 1 15.8651 6.85766 0.113147
114 1 1 15.5952 5.73866 36.8918
120 1 1 16.4226 5.03142 0.37476
155 1 1 16.9522 3.23392 2.38888
157 1 1 16.2536 4.61207 1.54131
118 1 1 17.8434 6.29422 37.1871
159 1 1 17.5375 4.96962 0.548188
122 1 1 1.6777 6.15324 0.0187363
124 1 1 17.7476 7.95267 2.23036
126 1 1 2.97771 5.30393 37.6073
128 1 1 2.75747 6.74022 37.5814
132 1 1 3.35916 7.12478 0.654593
130 1 1 6.08909 5.8535 0.531886
136 1 1 5.74935 6.13236 2.54882
134 1 1 8.77412 6.78565 1.20986
138 1 1 8.75018 7.25252 37.1627
140 1 1 9.19112 6.20109 2.84663
144 1 1 8.9872 5.86176 0.715329
142 1 1 10.0357 5.22393 36.9841
148 1 1 11.4281 6.75948 37.2981
146 1 1 12.7429 7.33648 0.495881
150 1 1 13.6036 7.87018 36.9027
152 1 1 14.1866 6.36792 1.211
156 1 1 15.1833 5.77584 2.64291
154 1 1 14.6487 7.2832 37.3398
160 1 1 16.2213 6.13991 1.89269
158 1 1 0.43045 7.31195 0.504035
161 1 1 1.44526 7.76092 0.165472
162 1 1 1.38063 8.68956 36.5388
163 1 1 0.444771 6.93514 1.55086
164 1 1 0.315675 9.20794 0.587393
165 1 1 1.33554 7.53119 36.7415
166 1 1 3.50592 9.04016 36.6589
167 1 1 3.81475 8.92539 0.299405
168 1 1 2.85232 8.43298 0.125894
169 1 1 4.97633 7.29751 36.9059
172 1 1 3.72985 9.96087 0.32954
170 1 1 5.3493 8.28482 0.701862
171 1 1 5.20028 7.12392 0.324731
173 1 1 6.9949 6.21321 0.875901
176 1 1 3.77239 8.25484 1.94224
174 1 1 5.95351 8.2863 35.4195
175 1 1 6.49351 8.82404 1.35307
177 1 1 9.52875 7.33863 0.320795
178 1 1 9.40985 8.40605 37.3817
179 1 1 8.21665 8.07312 1.3996
180 1 1 7.48565 8.37125 2.07823
181 1 1 10.5596 7.04465 36.9841
184 1 1 9.79977 8.31372 1.66979
182 1 1 10.5133 8.11833 36.9903
183 1 1 10.7217 6.66061 0.468123
185 1 1 11.8296 8.01614 36.0516
188 1 1 11.762 7.78652 0.839315
186 1 1 12.5052 9.63621 0.439316
187 1 1 12.5461 8.42776 0.326339
189 1 1 12.1142 8.97509 37.0274
190 1 1 14.3462 8.33844 0.183608
191 1 1 13.8083 7.47978 0.342476
192 1 1 13.2682 8.97971 37.3608
193 1 1 17.0354 6.70728 1.31897
196 1 1 15.0582 8.92334 0.625558
194 1 1 16.9326 7.81474 0.254591
195 1 1 16.3975 7.88796 2.01677
197 1 1 17.2205 8.65357 0.858975
200 1 1 17.4207 9.82625 0.284549
198 1 1 18.3215 8.51736 37.61
199 1 1 0.504088 8.26561 37.3871
201 1 1 0.122013 9.19058 36.7065
203 1 1 1.84901 8.76794 0.629401
205 1 1 1.59613 9.80135 0.517882
207 1 1 2.82374 9.4329 0.461632
209 1 1 2.68712 10.3138 0.0100441
211 1 1 4.36263 10.6162 1.06606
213 1 1 5.75195 11.2569 37.4323
215 1 1 6.04271 9.11851 0.37259
217 1 1 6.98681 7.80959 0.771238
219 1 1 8.57203 7.98 0.240175
221 1 1 9.06636 8.67541 1.09082
223 1 1 11.4369 9.28792 0.27364
225 1 1 10.6782 10.1593 0.350736
227 1 1 12.1224 10.3397 1.09686
229 1 1 12.3449 9.8784 36.6018
231 1 1 14.3304 9.36508 37.5202
233 1 1 17.0051 10.1086 37.0481
235 1 1 16.0239 8.61822 0.449885
237 1 1 16.6813 8.93706 37.2264
239 1 1 18.142 8.86539 1.53591
202 1 1 1.01569 9.32779 1.66427
204 1 1 0.873503 10.4653 37.5679
241 1 1 17.9738 11.889 0.67763
243 1 1 2.01047 11.2393 1.17075
206 1 1 2.94358 11.4683 0.285253
208 1 1 1.76554 10.3147 2.67323
245 1 1 1.81248 10.7956 0.292317
247 1 1 2.45065 12.2278 2.71441
212 1 1 3.30866 10.6992 1.00243
249 1 1 4.97275 12.6231 0.557398
210 1 1 6.09109 9.99675 37.4858
216 1 1 6.62213 11.1785 1.19619
251 1 1 4.44657 11.6682 2.15495
253 1 1 6.4363 12.261 0.9863
214 1 1 7.26304 9.02464 36.9128
255 1 1 5.99273 12.3596 2.06567
218 1 1 7.99574 9.16014 0.761892
220 1 1 7.67002 10.0774 0.0974802
257 1 1 6.77494 13.0183 0.248078
259 1 1 8.60296 12.8247 1.2541
224 1 1 9.32533 9.95946 2.00968
261 1 1 8.63214 11.7859 0.0620812
222 1 1 9.47066 10.4877 0.488522
228 1 1 10.7427 10.6879 1.27675
263 1 1 11.1705 11.0563 2.28732
265 1 1 12.1491 11.752 1.74719
226 1 1 12.274 10.5963 0.0576358
267 1 1 13.0219 10.635 2.26666
230 1 1 14.0867 10.4016 0.171556
232 1 1 13.622 9.34786 0.703589
269 1 1 13.3816 11.3843 0.666082
271 1 1 15.4894 11.1829 0.769973
236 1 1 15.0794 10.4101 1.27818
273 1 1 14.9854 10.7612 37.081
234 1 1 16.2392 11.5904 36.9755
240 1 1 17.317 11.2068 36.5736
275 1 1 15.3803 9.8903 0.101931
277 1 1 16.226 12.8073 37.5715
238 1 1 17.7001 9.0542 37.0622
279 1 1 18.1373 10.8664 0.897114
242 1 1 1.03021 11.4454 1.5099
244 1 1 18.0057 13.4285 1.03732
246 1 1 4.52296 11.6575 0.959357
248 1 1 2.1961 12.4838 0.763959
252 1 1 3.52756 13.2762 1.46283
250 1 1 4.32268 13.3407 0.506725
256 1 1 5.48761 13.8986 1.44149
254 1 1 6.08503 12.381 37.2873
258 1 1 7.63962 12.3416 0.534326
260 1 1 6.28948 13.2384 1.60703
264 1 1 9.71069 12.7985 3.13411
262 1 1 11.4503 11.3024 0.390451
268 1 1 12.1587 10.0773 2.61749
266 1 1 13.8553 12.0797 35.4058
270 1 1 14.0446 12.0004 0.015755
272 1 1 12.468 11.9315 0.469454
276 1 1 16.4343 12.3657 0.873309
274 1 1 15.3855 12.7932 0.789689
280 1 1 15.6108 13.7616 0.887253
278 1 1 17.0977 12.2056 37.4013
281 1 1 17.5231 12.9728 0.285676
282 1 1 1.89237 14.2126 2.23041
283 1 1 18.8163 12.654 0.696358
284 1 1 0.898414 13.7306 1.86023
285 1 1 1.70703 11.9768 37.6061
286 1 1 0.909086 12.7928 1.18619
287 1 1 2.63095 14.0676 1.01037
288 1 1 1.56969 15.4823 1.7682
289 1 1 3.17735 14.2404 0.0883416
292 1 1 3.85805 14.3204 0.76972
290 1 1 3.69343 12.1754 37.4616
291 1 1 4.92883 14.3297 0.514613
293 1 1 5.14083 13.0333 37.1371
296 1 1 5.9 14.7902 0.380071
294 1 1 6.52131 14.3683 37.2059
295 1 1 5.79819 13.229 0.344757
297 1 1 7.43502 13.4148 37.1962
298 1 1 9.35601 15.488 1.8016
299 1 1 7.44876 14.1879 0.428526
300 1 1 6.98987 15.2024 0.482046
301 1 1 10.0297 13.6204 37.2699
304 1 1 10.5302 15.2388 1.75351
302 1 1 10.7253 12.4472 1.95517
303 1 1 11.8902 12.7492 1.82351
305 1 1 11.5515 13.4095 0.00271783
308 1 1 9.94785 13.1207 0.661268
306 1 1 13.0554 15.4865 1.30897
307 1 1 12.0578 13.9451 0.893648
309 1 1 13.2094 12.5602 37.4106
310 1 1 13.6092 13.6112 0.479049
311 1 1 14.1049 12.6654 0.916581
312 1 1 15.0916 14.7251 1.19685
313 1 1 14.5035 12.893 37.2871
316 1 1 14.7048 14.0152 0.38957
314 1 1 16.6158 14.7847 37.559
315 1 1 18.1344 14.2446 0.293914
317 1 1 16.6932 14.6751 1.06706
320 1 1 17.6129 15.4478 2.93242
318 1 1 18.4616 15.6497 1.66921
319 1 1 18.4978 14.3001 1.39371
321 1 1 0.460105 15.7427 0.893962
323 1 1 1.44868 16.3031 1.15654
325 1 1 1.57318 15.2218 0.848597
327 1 1 3.91407 15.6772 1.23946
329 1 1 4.02489 14.7364 36.9586
331 1 1 4.26206 15.2108 0.359304
333 1 1 6.14269 13.375 36.3962
335 1 1 6.2441 16.9417 0.679168
337 1 1 5.19636 15.7168 0.0858362
339 1 1 8.11714 15.7826 0.773437
341 1 1 8.89666 14.2916 37.0985
343 1 1 10.0259 14.5267 0.429115
345 1 1 11.8497 15.4157 37.1936
347 1 1 12.0734 15.8564 0.502346
349 1 1 12.4853 13.1397 37.1482
351 1 1 14.9703 15.9135 2.06238
353 1 1 13.629 14.5578 0.877255
355 1 1 15.1699 14.8507 37.1395
357 1 1 16.049 15.7233 37.025
359 1 1 0.233774 13.7403 2.9972
322 1 1 1.3554 15.3632 37.4493
324 1 1 0.405965 16.2742 1.9092
361 1 1 1.00631 16.6623 0.33076
363 1 1 2.38989 16.6461 1.81139
326 1 1 2.66654 15.2358 37.208
328 1 1 2.68625 16.129 0.798109
365 1 1 1.92456 16.2287 0.182998
367 1 1 3.31599 17.7513 0.301496
332 1 1 3.62068 16.4255 0.0823351
369 1 1 2.5333 0.452311 36.8874
330 1 1 4.66642 16.8758 37.6201
336 1 1 4.59585 17.6976 0.797425
371 1 1 3.96923 18.5786 0.443255
373 1 1 4.61078 17.7436 36.864
334 1 1 6.03557 15.8877 0.932081
375 1 1 6.07326 16.7009 1.95136
338 1 1 8.07503 15.5996 36.0566
340 1 1 6.4097 16.4251 36.7101
377 1 1 7.72748 18.2342 37.2525
379 1 1 8.46723 16.2148 37.5048
344 1 1 8.62168 16.5696 1.4192
381 1 1 9.81115 15.9043 37.569
342 1 1 10.308 16.2494 1.13932
348 1 1 11.654 15.5288 2.24359
383 1 1 10.7921 17.0713 0.560779
385 1 1 10.9495 15.9322 37.5214
346 1 1 11.6248 16.8684 1.321
387 1 1 12.372 17.8296 2.05935
350 1 1 14.3689 15.7727 1.00088
352 1 1 13.4252 16.4439 0.311173
389 1 1 13.0549 17.511 37.4751
391 1 1 13.8268 17.5268 0.819859
356 1 1 14.6623 15.6249 37.6239
393 1 1 15.454 16.6741 37.2317
354 1 1 16.7758 16.3636 37.528
360 1 1 18.5912 14.893 2.45159
395 1 1 16.2896 18.2292 37.0182
397 1 1 17.0583 15.7111 0.634712
358 1 1 18.5229 15.1527 0.384495
399 1 1 17.9877 16.3773 37.0792
362 1 1 1.72662 17.9364 37.5864
364 1 1 0.582555 17.7083 37.6051
366 1 1 2.77273 0.00452109 0.313998
368 1 1 1.95988 18.3085 1.37891
372 1 1 3.40685 1.30837 36.5673
370 1 1 5.04264 0.227669 36.8537
376 1 1 6.01465 18.3663 0.704661
374 1 1 5.93654 17.5763 36.3016
378 1 1 8.75642 16.477 36.3854
380 1 1 7.32986 18.5376 2.35114
384 1 1 9.65744 17.2347 37.0167
382 1 1 11.6757 17.3035 37.5418
388 1 1 11.6433 0.286302 1.45529
386 1 1 12.6438 17.0801 0.595362
390 1 1 14.5694 18.3233 36.2513
392 1 1 12.4415 18.3348 0.79235
396 1 1 14.5823 0.192852 0.537777
394 1 1 15.6021 0.0078085 0.884764
400 1 1 17.5162 17.9266 37.2099
398 1 1 16.5213 18.4741 35.9114
401 1 1 0.525359 18.4273 0.87214
402 1 1 18.5605 0.792526 1.69783
403 1 1 0.20026 0.114625 3.91003
404 1 1 18.1734 0.457794 0.586009
405 1 1 1.92695 1.05787 0.901525
406 1 1 2.62255 2.74834 0.113061
407 1 1 3.55916 18.2078 4.74688
408 1 1 2.30447 0.63058 5.04383
409 1 1 3.89107 0.0673068 3.14845
412 1 1 3.32243 1.16027 1.8252
410 1 1 5.13667 0.750238 3.23123
411 1 1 5.95237 17.8585 3.51216
413 1 1 6.18656 18.6457 2.86268
416 1 1 6.11024 0.949569 4.11631
414 1 1 6.86866 1.99832 1.11316
415 1 1 7.8826 0.834008 4.10312
417 1 1 7.07316 1.00408 1.89461
418 1 1 9.096 0.323363 0.289655
419 1 1 8.35356 0.0269192 1.89326
420 1 1 7.94535 2.09906 3.63502
421 1 1 9.42286 0.136674 1.55252
424 1 1 8.92083 1.11528 1.80015
422 1 1 10.7433 18.6822 1.97891
423 1 1 9.83368 18.6448 2.49124
425 1 1 10.4793 17.3869 3.19289
428 1 1 10.5565 0.137265 3.14469
426 1 1 14.1658 1.78495 1.66675
427 1 1 12.1972 1.23278 3.36342
429 1 1 13.252 18.6972 1.56454
430 1 1 15.1761 0.739569 1.38546
431 1 1 13.7659 18.509 3.08392
432 1 1 13.4732 17.6693 2.71004
433 1 1 16.2284 0.844163 2.63712
436 1 1 15.8847 1.09934 3.78142
434 1 1 16.5656 18.6972 0.716597
435 1 1 18.0715 18.2818 3.2247
437 1 1 16.7187 17.7883 0.869832
440 1 1 18.5838 1.55783 2.67895
438 1 1 18.2526 18.1174 0.788815
439 1 1 16.5218 0.281591 1.92897
441 1 1 18.7866 2.39887 3.21076
442 1 1 0.940803 2.54872 2.81401
443 1 1 1.34871 1.11933 3.35532
444 1 1 17.7789 3.62731 2.79168
445 1 1 2.45597 3.00827 1.89969
446 1 1 1.58765 4.24651 1.72245
447 1 1 2.48069 1.83841 1.39956
448 1 1 2.331 2.20762 2.81902
449 1 1 4.16692 1.33464 2.53357
452 1 1 3.54587 3.12087 2.15636
450 1 1 3.7958 4.02594 2.439
451 1 1 3.45313 1.03316 3.49396
453 1 1 6.17676 2.11159 2.54159
456 1 1 4.21267 1.98108 3.61441
454 1 1 7.81986 3.19034 0.10434
455 1 1 5.50288 2.80504 3.65474
457 1 1 7.64082 2.63615 1.48775
458 1 1 9.58211 1.87754 2.51219
459 1 1 8.43322 2.51775 4.57487
460 1 1 7.80146 3.89275 2.6421
461 1 1 10.0675 1.57006 1.41013
464 1 1 10.2977 3.34429 1.16687
462 1 1 11.4537 1.89101 2.85495
463 1 1 10.3314 0.843589 2.03971
465 1 1 11.5222 1.81753 1.90566
468 1 1 10.3233 1.26505 2.95476
466 1 1 12.7032 1.44796 4.19809
467 1 1 12.6345 0.221949 3.44993
469 1 1 12.8794 0.831233 1.33237
470 1 1 13.374 2.11748 1.00122
471 1 1 13.4654 1.19484 3.30968
472 1 1 13.6417 2.82683 1.71251
473 1 1 14.8694 2.38448 1.83537
476 1 1 14.9113 1.70801 3.35841
474 1 1 15.9756 1.40377 1.14549
475 1 1 16.9409 2.04719 5.02665
477 1 1 17.7243 1.32013 2.1116
480 1 1 16.9031 2.64804 3.55464
478 1 1 17.5345 2.20948 2.50431
479 1 1 17.3418 1.29179 4.02899
481 1 1 0.602073 3.44653 0.590323
483 1 1 17.8941 2.87731 3.58897
485 1 1 3.1492 5.49202 2.72038
487 1 1 3.28582 3.20213 3.4331
489 1 1 3.11747 4.91303 1.72439
491 1 1 4.79318 3.86773 3.08242
493 1 1 5.95485 4.07747 1.5391
495 1 1 7.07254 2.54075 2.30254
497 1 1 6.7007 3.53644 2.182
499 1 1 9.76761 2.57552 0.7211
501 1 1 8.84131 2.70905 0.449792
503 1 1 9.96157 4.5929 2.59806
505 1 1 12.4682 2.49822 1.84764
507 1 1 13.37 1.75896 2.3127
509 1 1 12.9636 4.1307 1.60322
511 1 1 14.9038 2.70808 2.97893
513 1 1 15.9999 2.49511 1.36315
515 1 1 15.8287 3.91352 3.11461
517 1 1 15.8985 2.47047 2.84944
519 1 1 16.7334 4.26486 2.77365
482 1 1 1.45838 4.05167 3.24639
484 1 1 0.367127 3.68547 3.33085
521 1 1 18.524 4.69993 2.6868
523 1 1 0.572088 5.61475 2.57186
486 1 1 3.46002 6.70391 3.88463
488 1 1 1.16403 3.51561 2.44344
525 1 1 1.59949 5.36608 1.69539
527 1 1 3.49941 6.11641 0.811021
492 1 1 4.50819 4.89692 2.83224
529 1 1 4.39151 6.64073 1.29425
490 1 1 5.39314 4.98214 1.91715
496 1 1 5.34907 3.18873 2.29671
531 1 1 4.31016 5.74808 2.17429
533 1 1 7.00169 5.0251 1.35349
494 1 1 8.21818 5.2748 1.24833
535 1 1 7.50121 5.10007 2.58004
498 1 1 7.69404 7.34499 1.86227
500 1 1 9.06554 3.12362 2.06696
537 1 1 8.69113 5.10547 3.13766
539 1 1 9.08392 6.7149 4.25992
504 1 1 8.43165 2.08821 2.50642
541 1 1 11.0211 5.58992 1.03936
502 1 1 10.8483 4.41547 1.66386
508 1 1 13.9432 2.62331 2.66979
543 1 1 11.328 5.91026 2.09063
545 1 1 9.22949 4.96065 1.94134
506 1 1 13.3169 5.40971 1.46853
547 1 1 11.2483 4.62933 2.53271
510 1 1 15.449 3.4838 2.22984
512 1 1 11.821 5.63278 3.5374
549 1 1 13.626 7.04634 1.61793
551 1 1 14.0969 4.69897 2.78013
516 1 1 14.5618 3.6888 3.34875
553 1 1 14.2372 5.56824 2.15504
514 1 1 17.9739 4.18337 1.54239
520 1 1 16.4817 4.35346 3.90205
555 1 1 15.1243 4.64379 3.05828
557 1 1 17.1059 5.22759 2.33688
518 1 1 0.76082 4.65092 1.93943
559 1 1 18.3804 5.66323 2.35955
522 1 1 18.2069 6.67564 1.74216
524 1 1 18.7913 7.81853 2.15049
526 1 1 2.63248 6.35341 1.9783
528 1 1 2.18285 8.21367 3.0417
532 1 1 2.64541 6.49767 3.00137
530 1 1 5.38507 7.60548 2.92836
536 1 1 5.96703 6.82619 3.27049
534 1 1 6.656 6.96398 2.20437
538 1 1 9.21907 7.11646 2.24663
540 1 1 9.76835 7.50273 3.23912
544 1 1 10.1699 7.20278 1.58211
542 1 1 12.1861 5.52119 1.577
548 1 1 11.5652 7.04679 1.39584
546 1 1 12.6422 6.58321 1.59252
550 1 1 15.2438 5.01043 0.0746586
552 1 1 12.7069 6.82778 2.67012
556 1 1 13.9331 6.35667 2.7257
554 1 1 15.0544 6.89967 1.62269
560 1 1 16.4464 5.89671 2.89271
558 1 1 16.8269 6.80754 2.60817
561 1 1 1.19708 7.72203 2.43445
562 1 1 0.309131 8.1321 1.05784
563 1 1 0.489009 6.59778 2.58738
564 1 1 18.6653 8.9308 2.78454
565 1 1 1.33074 7.64906 1.31685
566 1 1 2.57513 7.92015 1.63231
567 1 1 2.66777 9.1161 2.9971
568 1 1 0.33518 9.87313 2.53348
569 1 1 4.34521 7.88499 0.787011
572 1 1 5.25578 8.7069 3.19617
570 1 1 6.59091 7.92255 3.05472
571 1 1 4.43231 6.89455 3.51705
573 1 1 5.61889 6.8969 1.99523
576 1 1 7.16047 9.29058 4.1975
574 1 1 6.26826 9.73193 1.6069
575 1 1 7.06885 7.13243 3.79047
577 1 1 7.33938 9.08988 2.72869
578 1 1 10.3168 9.55624 1.63904
579 1 1 8.39176 8.70069 3.21398
580 1 1 8.43379 10.1821 1.40878
581 1 1 10.586 8.60566 3.57749
584 1 1 9.22634 9.21183 3.64846
582 1 1 10.8432 8.67556 1.72677
583 1 1 10.7986 7.57404 0.926931
585 1 1 11.4402 8.29207 37.506
588 1 1 11.3319 6.67408 3.8324
586 1 1 12.8543 8.9409 1.71436
587 1 1 11.2088 7.80143 2.07863
589 1 1 14.7852 8.34763 1.39375
590 1 1 13.7158 10.6157 1.55683
591 1 1 14.5138 7.28848 2.43132
592 1 1 13.435 8.19313 1.2295
593 1 1 14.8249 7.03715 0.630909
596 1 1 14.5071 10.0042 2.3135
594 1 1 15.5602 7.70156 0.709091
595 1 1 14.9951 9.03835 2.26245
597 1 1 17.4301 8.67352 3.07736
600 1 1 16.6547 9.36201 1.41806
598 1 1 17.8456 7.55966 0.888353
599 1 1 17.3572 7.56291 3.22461
601 1 1 18.6822 9.86761 1.61683
603 1 1 18.5327 10.6544 2.78342
605 1 1 2.10624 8.92803 1.92083
607 1 1 3.56777 7.22042 1.86198
609 1 1 4.61442 8.66152 1.50408
611 1 1 5.09582 9.90698 3.36766
613 1 1 5.73724 8.16595 2.10922
615 1 1 6.97272 10.2278 3.72688
617 1 1 7.56348 8.46503 0.226032
619 1 1 8.66801 9.3161 2.16813
621 1 1 9.9121 10.3214 2.88027
623 1 1 10.3311 9.03585 2.6153
625 1 1 11.446 9.56611 1.77817
627 1 1 10.9843 9.97262 2.75659
629 1 1 14.1704 10.5322 3.13204
631 1 1 15.0749 9.05333 3.62792
633 1 1 14.1296 9.12051 1.70121
635 1 1 16.3635 8.88715 3.6509
637 1 1 17.2549 8.75739 2.09042
639 1 1 17.0695 10.5661 2.23033
602 1 1 18.1317 12.362 2.8939
604 1 1 0.74177 10.657 1.99612
641 1 1 17.9309 12.5603 1.61976
643 1 1 1.27729 11.5616 2.55774
606 1 1 2.94982 9.69917 1.54014
608 1 1 1.1607 11.1131 3.46121
645 1 1 2.6281 10.6772 1.87455
647 1 1 3.33836 11.3475 2.90736
612 1 1 4.67472 9.30537 2.48677
649 1 1 3.78194 10.317 1.98607
610 1 1 4.89414 10.7756 2.13879
616 1 1 6.3202 9.0473 2.27464
651 1 1 5.54852 11.8323 3.45151
653 1 1 5.39749 10.8789 3.41013
614 1 1 7.05341 10.0367 1.1735
655 1 1 7.09098 12.926 2.27111
618 1 1 7.33074 10.833 1.83571
620 1 1 7.67539 10.9632 3.97735
657 1 1 8.77386 11.1679 36.8821
659 1 1 7.75581 11.7777 2.60634
624 1 1 7.50023 10.6756 2.87554
661 1 1 9.09599 11.2072 1.33741
622 1 1 9.99534 11.6668 2.55629
628 1 1 10.1528 9.88307 3.86361
663 1 1 9.64069 11.238 3.4164
665 1 1 13.4908 9.57473 2.37094
626 1 1 13.7268 9.89902 5.14537
667 1 1 12.7091 10.4901 4.62071
630 1 1 14.9284 10.9795 2.12739
632 1 1 14.3327 11.4764 3.48575
669 1 1 13.2935 11.6003 2.74701
671 1 1 13.9478 12.629 3.73447
636 1 1 15.6937 9.82634 2.37361
673 1 1 14.2932 13.588 2.91822
634 1 1 15.8269 8.98472 1.46423
640 1 1 16.9597 9.66124 2.84265
675 1 1 14.7103 12.5556 2.60143
677 1 1 16.4124 11.1988 0.389073
638 1 1 16.0799 10.6037 1.46547
679 1 1 16.7302 13.5456 0.874706
642 1 1 18.5747 11.5604 1.65164
644 1 1 17.1512 12.2263 3.44102
646 1 1 2.44196 13.4055 1.77067
648 1 1 2.21939 14.7436 4.20581
652 1 1 3.16647 11.9316 2.1213
650 1 1 4.76923 12.5063 1.55156
656 1 1 5.1283 12.3467 2.72905
654 1 1 5.1472 13.7308 2.73104
658 1 1 9.33508 12.1531 0.89155
660 1 1 6.31388 13.8464 2.84309
664 1 1 12.0658 13.3405 3.93466
662 1 1 10.9745 12.5006 3.22594
668 1 1 11.5785 10.5098 3.59602
666 1 1 13.0775 13.726 1.37041
670 1 1 13.803 12.2956 2.18371
672 1 1 12.9514 12.8621 2.29024
676 1 1 12.8963 12.5339 3.64684
674 1 1 15.8516 12.4125 2.0142
680 1 1 16.7356 12.7836 2.27152
678 1 1 18.0623 14.0694 2.79236
681 1 1 1.3075 14.09 3.10389
682 1 1 0.141908 15.7432 3.08726
683 1 1 0.253445 12.3468 2.31452
684 1 1 17.9741 14.5588 3.78486
685 1 1 18.7809 13.2143 1.70575
686 1 1 2.78229 15.1237 0.735617
687 1 1 1.95273 13.3471 2.73237
688 1 1 2.52085 14.5074 3.05181
689 1 1 3.48606 14.2129 3.17646
692 1 1 4.60816 14.5428 4.20691
690 1 1 4.4538 16.572 2.19703
691 1 1 4.25438 13.8158 2.19345
693 1 1 5.55043 14.7017 2.29388
696 1 1 6.27916 15.1604 1.7428
694 1 1 6.75037 14.3412 1.27679
695 1 1 5.72767 13.754 3.78077
697 1 1 7.49457 12.3468 1.55764
698 1 1 9.88703 16.3618 2.22492
699 1 1 8.85879 12.9021 3.81887
700 1 1 7.58955 13.8563 1.87043
701 1 1 8.24649 13.4972 2.80644
704 1 1 8.69989 14.9667 2.60157
702 1 1 9.98224 13.8812 1.81489
703 1 1 9.28432 13.8277 3.30785
705 1 1 11.8672 13.0325 2.91111
708 1 1 12.2845 13.7186 2.17676
706 1 1 14.1254 13.897 1.62628
707 1 1 12.0003 11.9338 3.85383
709 1 1 14.7781 13.0798 1.64346
710 1 1 14.2537 14.4477 3.51747
711 1 1 13.2729 13.9296 2.73821
712 1 1 12.4149 14.0169 3.27514
713 1 1 15.2853 14.5657 2.23574
716 1 1 15.3955 14.4036 3.21335
714 1 1 15.727 14.7489 0.426889
715 1 1 14.4979 13.571 4.21832
717 1 1 17.2496 15.2889 1.82929
720 1 1 17.0089 14.1021 2.04248
718 1 1 18.4466 13.1168 3.56356
719 1 1 0.824892 12.7097 4.19813
721 1 1 0.728984 14.8422 1.6717
723 1 1 18.4644 15.374 5.59964
725 1 1 2.79864 15.2435 1.79124
727 1 1 3.46709 17.4616 2.7435
729 1 1 3.6227 15.113 2.53302
731 1 1 4.54658 16.5369 0.965781
733 1 1 5.09388 15.0874 1.25595
735 1 1 6.98034 15.8212 1.29138
737 1 1 8.05377 15.9548 2.19057
739 1 1 9.62117 16.1059 3.97903
741 1 1 8.68108 17.1241 2.48895
743 1 1 10.4156 14.5682 2.68518
745 1 1 12.2645 16.4404 2.14628
747 1 1 11.5449 14.8833 1.36698
749 1 1 14.1438 15.1141 1.73587
751 1 1 16.0463 15.7125 1.40644
753 1 1 15.5182 16.4963 0.843368
755 1 1 16.3255 15.3513 2.45253
757 1 1 16.6244 17.0797 1.62607
759 1 1 16.724 15.8022 3.82258
722 1 1 1.48414 16.1921 2.7494
724 1 1 0.540934 16.8669 2.96075
761 1 1 1.11228 17.4445 1.51512
763 1 1 2.79503 18.644 2.90154
726 1 1 1.63693 17.488 3.06031
728 1 1 1.28639 18.5149 3.79055
765 1 1 4.73239 18.4919 1.43218
767 1 1 2.33189 17.8803 3.80313
732 1 1 4.29113 17.7876 1.98854
769 1 1 2.45013 17.5401 0.813864
730 1 1 3.35326 16.7012 1.33032
736 1 1 7.64422 15.1508 3.53035
771 1 1 5.11096 17.7531 2.61421
773 1 1 5.86924 17.5669 1.3078
734 1 1 8.05768 17.6499 1.86626
775 1 1 7.30549 16.8992 2.31977
738 1 1 8.39873 15.1064 1.41311
740 1 1 7.79521 16.647 3.63984
777 1 1 6.85024 15.7496 2.33854
779 1 1 6.93833 17.5643 3.05163
744 1 1 10.2894 16.2198 3.22024
781 1 1 9.52408 17.0646 1.6119
742 1 1 10.9101 13.2377 2.64169
748 1 1 11.8733 16.0319 3.68917
783 1 1 9.57519 17.5939 2.66307
785 1 1 11.3184 17.7717 1.07175
746 1 1 11.3908 16.7728 2.72864
787 1 1 13.5551 16.0132 3.27519
750 1 1 14.6095 17.1032 1.49391
752 1 1 13.4695 15.6641 2.3025
789 1 1 13.0928 16.8282 1.36914
791 1 1 14.7983 18.3308 2.68955
756 1 1 14.0022 16.6527 2.47357
793 1 1 15.2286 17.9671 1.75893
754 1 1 17.6526 16.7013 0.620327
760 1 1 18.4654 18.2038 2.07379
795 1 1 15.213 17.6116 0.473741
797 1 1 17.7999 17.4379 1.45012
758 1 1 18.6437 16.9033 0.308537
799 1 1 17.3768 17.8242 2.43795
762 1 1 1.58944 18.4965 2.70079
764 1 1 0.662271 18.6371 2.28698
766 1 1 3.5135 18.2104 3.80113
768 1 1 3.39794 18.5881 1.29717
772 1 1 5.18468 17.7752 4.6283
770 1 1 5.73003 0.304894 1.43317
776 1 1 6.10215 17.6534 2.25181
774 1 1 6.73144 0.0975908 1.36605
778 1 1 7.95669 17.8299 2.93839
780 1 1 7.37495 0.873443 3.16594
784 1 1 10.7476 17.0891 1.85206
782 1 1 10.0241 18.0195 0.832168
788 1 1 12.4876 16.8506 3.76224
786 1 1 11.2555 17.7565 2.41733
790 1 1 14.2042 18.2047 1.61301
792 1 1 13.0071 16.7577 2.6901
796 1 1 14.4485 0.581412 2.43955
794 1 1 14.5285 18.2286 37.4906
800 1 1 16.7498 17.8125 3.64001
798 1 1 18.74 0.529339 2.82933
801 1 1 0.314975 1.33598 3.7174
802 1 1 2.75365 1.20281 2.81073
805 1 1 1.25052 0.49854 4.50598
806 1 1 2.82549 1.72134 4.89605
809 1 1 3.94779 0.414749 4.95429
810 1 1 4.54532 0.252827 3.96453
813 1 1 6.81602 0.00551222 3.86529
814 1 1 6.81529 1.98079 3.61048
817 1 1 7.43742 18.413 4.88718
818 1 1 9.01368 0.524312 2.86426
821 1 1 9.68832 18.4144 3.43826
822 1 1 10.8419 18.2757 3.85864
825 1 1 11.615 18.5029 3.05997
826 1 1 11.4913 0.992479 4.26142
829 1 1 12.9605 17.9749 3.7463
830 1 1 14.4307 0.573057 3.57739
833 1 1 16.317 0.0585994 3.60862
834 1 1 16.8101 0.813953 4.9924
837 1 1 17.3034 18.6929 4.08311
838 1 1 18.6012 2.03972 1.8149
841 1 1 18.3939 1.80499 4.29847
842 1 1 18.6557 3.13582 4.29039
845 1 1 2.34529 1.16949 3.80082
846 1 1 2.35972 4.09126 3.81502
849 1 1 2.99995 0.338974 4.23615
850 1 1 4.09321 1.29839 4.34941
853 1 1 5.32767 1.84774 3.43611
854 1 1 7.16972 2.93369 3.28244
857 1 1 7.36577 2.82498 4.2996
858 1 1 9.70275 3.36179 4.51983
861 1 1 9.34617 2.08992 3.92216
862 1 1 9.91854 2.6416 2.95861
865 1 1 10.7342 2.29633 3.58325
866 1 1 11.6919 2.15163 4.30703
869 1 1 14.595 1.54527 4.35807
870 1 1 14.5688 2.76862 3.93468
873 1 1 15.2346 1.7246 5.10088
874 1 1 15.3763 1.51825 2.29844
877 1 1 17.2804 2.03112 5.9342
878 1 1 17.5449 4.03343 4.67561
881 1 1 17.8624 4.35806 3.67898
885 1 1 2.05516 3.15965 3.17737
889 1 1 3.98572 3.93603 3.97298
893 1 1 4.53928 3.01635 3.75333
897 1 1 8.05805 3.18827 3.59219
901 1 1 10.902 3.80604 4.86132
905 1 1 11.0327 3.29335 3.87805
909 1 1 14.1804 3.64113 2.35514
913 1 1 15.491 2.27235 4.04647
917 1 1 17.0292 3.58467 3.61585
882 1 1 0.0259487 4.6068 3.83041
921 1 1 18.0211 5.44835 3.34189
886 1 1 3.95511 5.65673 3.78333
925 1 1 2.50281 4.54284 2.47473
929 1 1 4.01764 5.13393 4.87365
890 1 1 5.04153 5.83407 5.30764
933 1 1 4.83366 4.79399 4.02133
894 1 1 6.63644 4.56683 2.21182
898 1 1 9.8483 4.40041 3.89771
937 1 1 8.33563 3.75852 1.59339
941 1 1 8.93198 4.15896 2.5919
902 1 1 9.74035 5.49031 4.14377
945 1 1 10.3933 6.01903 3.31987
906 1 1 13.5128 3.72251 4.51866
910 1 1 15.4951 3.46417 3.9161
949 1 1 14.6701 4.56369 3.92675
953 1 1 13.3106 4.70365 3.45192
914 1 1 15.5114 5.04713 4.35518
957 1 1 15.6416 6.02051 3.79632
918 1 1 17.2788 5.13526 4.20562
922 1 1 1.41112 6.81311 2.95135
926 1 1 3.74751 7.58631 4.04544
930 1 1 4.87397 5.73452 3.08452
934 1 1 7.84663 6.0051 2.01154
938 1 1 10.4696 8.00744 2.5421
942 1 1 9.98238 5.73794 2.29501
946 1 1 13.3755 5.76059 3.5134
950 1 1 12.9486 5.80085 2.45402
954 1 1 14.5308 5.55768 3.84802
958 1 1 16.0029 7.54909 3.70967
961 1 1 0.749302 7.1899 3.6248
962 1 1 1.21948 9.30554 2.5629
965 1 1 2.26717 6.65823 3.85944
966 1 1 2.60605 7.63905 4.00066
969 1 1 3.62387 6.4294 2.99681
970 1 1 3.18211 7.50017 3.2541
973 1 1 6.70974 6.86381 4.73878
974 1 1 6.04055 7.63038 5.34863
977 1 1 7.56059 5.44765 5.01984
978 1 1 8.03409 9.74753 3.36658
981 1 1 10.1985 6.75722 2.55666
982 1 1 11.5741 9.00098 4.41001
985 1 1 11.6456 6.87354 5.44068
986 1 1 12.3615 8.36157 3.96949
989 1 1 13.4497 7.90003 2.56226
990 1 1 12.5437 9.46524 4.35461
993 1 1 13.6687 8.59115 3.35014
994 1 1 16.1449 8.12888 5.33602
997 1 1 16.2218 8.77949 2.37886
998 1 1 0.596832 8.46656 3.98322
1001 1 1 0.111826 9.54708 3.50084
1005 1 1 3.74899 9.16457 2.54251
1009 1 1 4.35508 9.32839 4.00365
1013 1 1 5.85931 7.90751 3.88241
1017 1 1 9.56892 10.0007 4.64082
1021 1 1 8.8613 10.4296 3.88438
1025 1 1 12.0189 9.07787 5.37351
1029 1 1 12.4544 8.52629 2.70006
1033 1 1 13.8278 8.81201 4.4495
1037 1 1 18.0649 9.7822 2.83168
1002 1 1 18.8116 11.0949 3.90508
1041 1 1 18.5927 12.8905 5.28489
1006 1 1 2.89118 10.1997 2.87888
1045 1 1 2.2391 11.1432 3.06963
1049 1 1 3.87073 10.4694 3.29589
1010 1 1 5.42673 9.82617 2.18792
1053 1 1 6.99422 11.9515 4.12829
1014 1 1 6.52581 11.0577 2.58953
1018 1 1 8.52037 10.8222 4.80704
1057 1 1 9.36285 12.0237 6.46816
1061 1 1 8.79647 11.8781 2.1898
1022 1 1 8.65493 11.4276 3.79577
1065 1 1 10.7974 10.4816 4.57552
1026 1 1 11.6854 9.15998 2.99589
1030 1 1 14.4906 9.70599 4.11364
1069 1 1 12.9539 11.356 3.7873
1073 1 1 15.6683 10.9686 4.11609
1034 1 1 16.0715 11.5718 2.36299
1077 1 1 16.1374 12.7235 3.29074
1038 1 1 17.2919 11.4422 1.3594
1042 1 1 1.18223 12.4885 3.07408