ITEM: TIMESTEP
700
ITEM: NUMBER OF ATOMS
8000
ITEM: BOX BOUNDS pp pp pp
0.0000000000000000e+00 1.8820720577620570e+01
0.0000000000000000e+00 1.8820720577620570e+01
0.0000000000000000e+00 3.7641441155241139e+01
ITEM: ATOMS id mass type x y z
1 1 1 0.646051 18.1423 37.2262
2 1 1 0.835039 0.791504 0.465721
3 1 1 0.739762 1.33635 2.18671
4 1 1 0.196658 3.13089 37.261
5 1 1 1.69076 1.3963 37.174
6 1 1 4.78751 0.879441 37.5375
7 1 1 3.27056 1.91436 0.2274
8 1 1 0.822635 1.99169 1.35604
9 1 1 4.35486 0.564355 35.541
12 1 1 3.65341 0.674615 0.851403
10 1 1 4.6656 2.65293 0.58632
11 1 1 7.08855 0.539317 0.846949
13 1 1 4.76219 18.5234 0.442643
16 1 1 5.8299 0.048984 37.1271
14 1 1 5.8177 4.21444 0.232516
15 1 1 6.67863 18.383 2.70084
17 1 1 7.37838 0.310059 36.6484
18 1 1 8.90597 2.19117 36.1368
19 1 1 7.93203 18.1056 0.0625684
20 1 1 8.47738 1.64634 0.336331
21 1 1 9.41626 16.0445 36.1184
24 1 1 11.7504 0.366571 36.1627
22 1 1 11.5217 0.888982 37.1999
23 1 1 9.96821 17.2858 37.1517
25 1 1 10.5261 0.293901 36.9505
28 1 1 10.6585 1.48677 37.2408
26 1 1 11.1673 2.15777 1.29221
27 1 1 11.3125 18.0813 1.91012
29 1 1 10.8765 18.0279 36.7381
30 1 1 14.6913 2.14882 37.338
31 1 1 13.1816 0.380855 37.5142
32 1 1 13.9765 0.0798664 1.43854
33 1 1 15.6014 -0.0152871 37.62
36 1 1 15.45 1.11248 37.578
34 1 1 16.2974 2.63254 37.2506
35 1 1 18.7459 0.980019 0.863979
37 1 1 18.1149 0.829418 37.6995
40 1 1 17.756 1.5469 0.948395
38 1 1 18.7607 0.0457239 36.9896
39 1 1 17.4342 0.292119 0.574718
41 1 1 1.23244 3.40114 0.313444
42 1 1 0.893266 4.0246 1.15501
43 1 1 1.86356 1.24357 2.71311
44 1 1 18.769 3.88919 1.71541
45 1 1 2.31815 2.22475 37.3506
46 1 1 1.5848 3.63616 2.62776
47 1 1 3.94541 2.4792 1.21284
48 1 1 2.045 3.3251 36.2508
49 1 1 3.7786 4.59362 37.5254
52 1 1 2.72367 1.49681 35.6893
50 1 1 3.58573 3.18599 0.312888
51 1 1 5.98566 0.537353 0.359463
53 1 1 7.21607 2.9173 37.2763
56 1 1 4.66971 1.44513 1.73866
54 1 1 7.37628 4.07031 37.4581
55 1 1 7.04995 2.882 1.75165
57 1 1 8.91566 0.526282 0.445659
58 1 1 10.8774 2.93684 37.2864
59 1 1 10.0154 2.45849 0.141523
60 1 1 9.2687 1.42219 1.26284
61 1 1 8.62292 2.65272 35.208
64 1 1 12.0409 3.02709 2.23697
62 1 1 12.4974 2.72616 0.123545
63 1 1 12.5432 0.582743 3.21479
65 1 1 12.6486 1.99875 1.25378
68 1 1 12.9291 3.0608 1.24378
66 1 1 13.1011 1.75003 0.403885
67 1 1 11.9274 1.45424 0.721133
69 1 1 13.6637 4.61487 35.9546
70 1 1 15.3178 5.53621 35.3777
71 1 1 13.7264 2.28404 1.20848
72 1 1 14.5988 4.23955 37.3186
73 1 1 14.728 3.20236 37.2845
76 1 1 13.3133 3.19311 0.256854
74 1 1 16.1377 4.45728 0.581096
75 1 1 15.3797 3.78085 0.171561
77 1 1 18.2679 2.56117 0.194902
80 1 1 16.6014 3.30757 1.10174
78 1 1 18.0813 3.92406 37.5044
79 1 1 16.2837 3.01053 2.13592
81 1 1 0.159183 5.23965 0.927628
83 1 1 2.49403 3.77998 0.906681
85 1 1 3.2814 3.4514 35.9572
87 1 1 1.65494 2.48764 0.764044
89 1 1 4.68028 3.88178 0.803416
91 1 1 5.46578 4.3945 1.45225
93 1 1 4.87686 5.30448 0.21789
95 1 1 8.29045 5.37712 37.4745
97 1 1 9.52179 2.65238 1.10445
99 1 1 6.80225 4.04026 1.25918
101 1 1 10.5445 4.59698 36.285
103 1 1 11.1615 4.35949 0.647639
105 1 1 12.758 3.4864 37.1548
107 1 1 13.9688 5.27117 37.6056
109 1 1 13.6829 2.85777 36.8229
111 1 1 14.0781 4.19129 0.826625
113 1 1 15.4404 5.21299 0.100052
115 1 1 17.6148 3.52227 0.724176
117 1 1 17.5342 2.6871 37.0423
119 1 1 16.8809 3.72432 2.84521
82 1 1 1.06735 5.29374 1.37897
84 1 1 17.7618 5.60759 0.883444
121 1 1 1.54124 4.72197 0.617832
123 1 1 2.13199 8.3594 36.6631
86 1 1 3.32228 4.6854 0.939331
88 1 1 1.05302 5.58885 2.34853
125 1 1 0.717612 6.77581 2.47167
127 1 1 1.74718 5.72133 0.689326
92 1 1 4.03035 5.75619 2.24119
129 1 1 3.93122 7.78462 37.4313
90 1 1 5.62906 6.09361 0.803054
96 1 1 6.52141 4.93578 2.36201
131 1 1 4.30233 5.42839 0.994649
133 1 1 4.69614 6.95524 36.6795
94 1 1 5.18366 6.14694 37.0741
135 1 1 8.26847 5.60741 2.27341
98 1 1 9.51153 4.53019 2.15905
100 1 1 9.53777 4.28729 0.710326
137 1 1 9.17663 5.82858 37.1394
139 1 1 10.2458 5.9854 37.2833
104 1 1 9.62519 3.97824 36.8175
141 1 1 7.75272 3.47883 35.3925
102 1 1 10.2447 5.32246 0.942491
108 1 1 11.829 5.05651 1.51336
143 1 1 10.0974 4.9401 37.4079
145 1 1 11.8634 6.4519 37.394
106 1 1 12.3024 4.56847 37.2119
147 1 1 12.6636 7.1808 0.62118
110 1 1 13.4554 4.53964 37.1249
112 1 1 14.1604 5.64369 0.826112
149 1 1 13.1345 6.1082 0.798659
151 1 1 14.3038 4.35851 2.25907
116 1 1 14.742 4.97383 1.49143
153 1 1 16.4833 6.53276 37.2164
114 1 1 15.5119 5.87702 36.7292
120 1 1 16.6682 5.53995 0.997932
155 1 1 15.6127 3.83505 2.26175
157 1 1 18.148 4.52066 1.11919
118 1 1 16.8389 7.52912 37.3294
159 1 1 18.7989 3.57031 0.536278
122 1 1 0.394359 5.52435 37.3707
124 1 1 16.5606 9.03462 2.24953
126 1 1 2.53431 4.64495 36.3507
128 1 1 2.36826 6.95514 36.9406
132 1 1 2.6435 6.60067 0.572405
130 1 1 6.91063 6.85455 1.2712
136 1 1 7.17326 8.22295 2.45792
134 1 1 10.02 6.88363 0.566867
138 1 1 8.82099 7.07994 36.6945
140 1 1 10.2132 6.22543 2.43455
144 1 1 9.67966 7.13739 37.29
142 1 1 9.51245 6.45595 36.3874
148 1 1 12.4839 8.41246 37.1975
146 1 1 13.5437 7.9221 0.797352
150 1 1 13.838 7.87199 37.3846
152 1 1 12.505 5.87099 2.12039
156 1 1 13.7684 5.28794 2.65656
154 1 1 15.2625 8.40644 37.1744
160 1 1 15.8752 5.69421 2.71152
158 1 1 1.46173 6.72619 1.40198
161 1 1 0.786488 6.70261 0.0143725
162 1 1 1.12116 8.87941 36.7551
163 1 1 0.540803 7.78203 0.661102
164 1 1 0.0610101 8.86473 37.5663
165 1 1 1.05179 7.61658 36.9113
166 1 1 3.27519 9.04352 35.2459
167 1 1 4.00243 9.67043 36.6907
168 1 1 3.3874 9.59731 37.5905
169 1 1 5.81424 6.9076 36.2311
172 1 1 4.78453 9.78651 37.5481
170 1 1 4.87315 8.49294 37.3477
171 1 1 5.81664 6.87623 2.31822
173 1 1 8.54701 6.38051 1.6868
176 1 1 4.08683 8.1248 1.47459
174 1 1 6.4391 8.61109 36.6123
175 1 1 7.19186 7.87774 1.04268
177 1 1 10.5803 7.65778 0.267729
178 1 1 9.38339 8.95931 37.6114
179 1 1 8.13895 8.25602 0.835721
180 1 1 8.38055 7.65516 2.3516
181 1 1 11.2219 7.78801 35.7449
184 1 1 9.73884 8.03992 1.00737
182 1 1 11.1508 8.55256 36.8021
183 1 1 11.5985 7.62662 37.2302
185 1 1 10.235 8.65032 36.3028
188 1 1 12.625 8.35456 0.60111
186 1 1 13.0902 10.3409 37.4955
187 1 1 12.5968 9.47754 0.11728
189 1 1 11.8499 9.58735 37.0778
190 1 1 14.5312 8.71613 0.498104
191 1 1 14.6459 6.91362 36.9435
192 1 1 13.4952 9.82723 36.7158
193 1 1 15.8896 6.16446 1.90645
196 1 1 14.7038 7.72885 1.19039
194 1 1 16.5869 8.0857 1.00655
195 1 1 17.1722 6.53777 1.41575
197 1 1 17.7688 8.71743 0.576701
200 1 1 17.706 10.0864 0.210798
198 1 1 18.2247 8.21979 37.0764
199 1 1 0.0651664 7.38938 37.3585
201 1 1 1.17778 9.47216 35.2529
203 1 1 1.37737 8.13804 1.01797
205 1 1 1.77592 10.7491 0.431744
207 1 1 2.65452 10.1502 0.609868
209 1 1 4.02941 8.92483 0.317882
211 1 1 5.3758 10.5212 0.292933
213 1 1 6.20089 11.8483 37.3665
215 1 1 6.51938 8.97026 1.14995
217 1 1 8.00577 7.33618 1.43456
219 1 1 8.91615 7.713 0.426022
221 1 1 9.80011 10.4374 2.04653
223 1 1 10.4153 9.80014 37.0261
225 1 1 10.1924 10.4097 0.606822
227 1 1 12.3826 9.91166 1.1415
229 1 1 12.3243 10.731 36.8134
231 1 1 16.2616 8.65672 36.3487
233 1 1 17.181 10.0042 36.6535
235 1 1 15.7916 8.31909 1.66963
237 1 1 15.5725 9.47835 36.8592
239 1 1 18.5457 9.68163 0.736268
202 1 1 0.157692 8.60594 2.97714
204 1 1 0.721753 9.6032 0.221873
241 1 1 18.2705 11.3375 0.924973
243 1 1 0.915762 12.3853 2.3983
206 1 1 3.10694 11.8203 0.555802
208 1 1 1.97321 10.4902 2.69977
245 1 1 2.02449 11.5837 0.923787
247 1 1 3.55481 12.9108 3.66746
212 1 1 3.85261 10.4026 0.768142
249 1 1 6.44682 12.7516 0.907764
210 1 1 4.97385 9.05284 36.4776
216 1 1 6.51343 11.6997 2.27061
251 1 1 4.61904 11.9752 2.14652
253 1 1 5.8213 12.6385 2.13851
214 1 1 8.46975 9.42419 34.5341
255 1 1 7.6449 11.8125 2.84706
218 1 1 9.63171 8.95341 1.38037
220 1 1 8.05534 9.05342 37.4623
257 1 1 8.07611 14.0435 1.43293
259 1 1 8.72377 12.8637 0.899159
224 1 1 7.92236 10.2666 1.60786
261 1 1 7.15886 11.8672 0.144047
222 1 1 7.08674 10.5039 0.330367
228 1 1 11.06 11.5005 0.787579
263 1 1 12.3845 11.0487 1.17117
265 1 1 13.3129 11.3059 2.2441
226 1 1 11.6891 11.4941 37.3709
267 1 1 13.3901 10.748 3.49946
230 1 1 13.9 10.6273 0.537794
232 1 1 14.8644 9.09533 1.79559
269 1 1 13.565 10.0928 1.31874
271 1 1 15.1695 12.4962 1.03899
236 1 1 15.6268 9.97088 0.32605
273 1 1 14.8875 11.332 0.329732
234 1 1 16.4633 12.2223 36.3489
240 1 1 17.3231 11.1691 36.376
275 1 1 14.316 9.18592 37.1006
277 1 1 16.0889 12.7428 0.326534
238 1 1 17.9491 9.43676 37.0617
279 1 1 17.5344 12.072 37.0604
242 1 1 0.572238 11.7316 1.09915
244 1 1 17.9522 15.0993 1.61407
246 1 1 5.57396 11.731 1.47392
248 1 1 1.59114 12.3807 1.58815
252 1 1 3.80462 12.7989 1.2082
250 1 1 4.4022 12.7507 0.266609
256 1 1 6.02683 13.6871 1.13222
254 1 1 7.11737 13.686 0.209836
258 1 1 7.85789 13.1808 0.987593
260 1 1 8.05526 14.2749 2.4917
264 1 1 9.60211 12.8879 1.49207
262 1 1 11.2578 10.2358 0.405755
268 1 1 12.3825 10.7124 2.32641
266 1 1 13.5191 11.2995 34.8964
270 1 1 13.6433 11.7164 0.55652
272 1 1 12.6931 12.0784 1.63158
276 1 1 16.4218 12.6527 1.33825
274 1 1 14.9551 14.0815 37.1048
280 1 1 14.9843 14.613 0.32585
278 1 1 17.4569 11.969 0.775188
281 1 1 17.3905 12.8062 1.80021
282 1 1 2.35402 15.4181 3.09612
283 1 1 18.2471 12.0621 2.18493
284 1 1 1.84169 14.571 2.03039
285 1 1 1.10388 12.0093 37.3122
286 1 1 1.15855 13.7654 3.02764
287 1 1 4.17237 14.4732 1.66224
288 1 1 3.07315 16.1052 2.1526
289 1 1 3.01432 14.9027 36.4642
292 1 1 3.87728 15.5433 2.54968
290 1 1 4.26636 11.6501 0.296908
291 1 1 4.43047 14.2003 0.0625677
293 1 1 5.59928 12.5125 36.7398
296 1 1 5.8594 14.7174 37.6225
294 1 1 5.26532 14.2045 36.7582
295 1 1 5.31623 13.3895 37.4949
297 1 1 7.97178 14.7166 37.3058
298 1 1 10.2649 15.6194 1.79026
299 1 1 6.54701 14.7812 0.934949
300 1 1 6.29383 15.7583 0.273882
301 1 1 9.33158 12.4371 36.9623
304 1 1 9.73984 16.7544 1.78775
302 1 1 10.4884 13.0123 2.39678
303 1 1 12.0445 12.1442 0.79593
305 1 1 12.4062 12.7341 0.210136
308 1 1 11.5336 12.9377 1.55023
306 1 1 11.8279 16.2807 0.839472
307 1 1 12.1404 13.6107 37.139
309 1 1 13.1642 12.9866 0.91612
310 1 1 13.3057 14.3091 0.840013
311 1 1 15.1008 13.1283 37.3896
312 1 1 15.468 15.9519 0.584904
313 1 1 14.5393 13.1088 36.1288
316 1 1 14.7254 15.3708 37.1451
314 1 1 17.9713 14.8356 37.5514
315 1 1 17.8014 14.1283 0.873646
317 1 1 16.1537 15.0413 0.229025
320 1 1 17.2473 15.6249 4.33217
318 1 1 0.811879 16.5894 1.64344
319 1 1 18.7907 15.9125 1.53163
321 1 1 1.54897 16.3825 0.361656
323 1 1 2.06548 15.4251 1.19386
325 1 1 1.68938 14.3605 0.978921
327 1 1 4.48529 16.0962 0.835253
329 1 1 4.2057 14.5736 36.6726
331 1 1 5.05548 14.9398 0.605524
333 1 1 6.43277 13.6104 36.2699
335 1 1 6.92875 18.399 0.228466
337 1 1 4.9596 14.0031 1.16634
339 1 1 7.13327 15.7383 1.18888
341 1 1 8.35753 16.175 37.1173
343 1 1 9.42555 15.3124 1.15189
345 1 1 12.0591 15.009 37.3488
347 1 1 11.36 15.2372 0.480336
349 1 1 13.0877 13.0218 36.82
351 1 1 16.6277 14.5164 0.97186
353 1 1 14.5989 16.555 0.632469
355 1 1 14.3285 16.642 36.3337
357 1 1 17.0602 14.7243 37.0254
359 1 1 0.622058 14.0237 4.38381
322 1 1 18.7389 13.6702 36.8682
324 1 1 0.0646245 17.642 1.68488
361 1 1 1.37223 17.1107 36.8504
363 1 1 2.74524 17.0892 2.30412
326 1 1 3.2373 16.0376 0.0101072
328 1 1 2.60187 16.3293 0.850181
365 1 1 0.871182 14.951 0.046937
367 1 1 2.90367 16.9927 36.9655
332 1 1 4.33927 16.6594 37.244
369 1 1 2.06059 0.292219 35.6686
330 1 1 5.76806 16.5492 37.3954
336 1 1 4.15915 18.4894 1.75541
371 1 1 3.81924 0.387417 37.4042
373 1 1 5.75573 17.3686 36.7898
334 1 1 6.22415 17.191 0.51695
375 1 1 6.5468 16.8134 1.42941
338 1 1 7.30762 15.7485 35.7453
340 1 1 6.6661 17.2148 37.2435
377 1 1 9.78172 16.4888 0.289753
379 1 1 8.84534 15.0389 0.292703
344 1 1 7.64124 16.4059 0.327449
381 1 1 9.99546 14.4289 0.18416
342 1 1 9.28833 15.7396 37.2031
348 1 1 11.6912 15.2983 1.50815
383 1 1 10.9715 16.2536 37.5188
385 1 1 10.1628 15.4223 0.219762
346 1 1 10.9204 16.4176 1.18695
387 1 1 12.4788 17.8745 2.57338
350 1 1 15.8644 16.153 1.89388
352 1 1 14.1107 17.5477 1.11567
389 1 1 12.2557 17.7564 0.277508
391 1 1 12.6618 17.1639 1.14898
356 1 1 15.1064 16.6099 37.3974
393 1 1 16.3987 16.6045 0.753396
354 1 1 16.841 16.2264 36.4175
360 1 1 18.7884 15.1678 4.0784
395 1 1 16.6433 18.2161 0.307515
397 1 1 17.6142 15.4274 0.643431
358 1 1 0.799973 15.7391 0.888421
399 1 1 18.0767 16.0822 37.591
362 1 1 1.74082 18.7625 37.2086
364 1 1 18.6857 17.3362 0.0377722
366 1 1 2.49787 0.0130405 0.39624
368 1 1 1.97613 0.272931 2.13798
372 1 1 3.04189 0.743991 36.7207
370 1 1 4.68387 18.5114 36.9345
376 1 1 6.45913 18.6445 1.08477
374 1 1 5.66079 17.6974 35.3822
378 1 1 9.23161 15.7262 35.2166
380 1 1 6.69093 0.597388 2.97577
384 1 1 10.388 16.1037 36.6046
382 1 1 11.8723 18.127 36.7582
388 1 1 10.9487 18.2548 0.549157
386 1 1 11.5217 17.2911 1.15575
390 1 1 14.5189 0.279504 36.6096
392 1 1 11.4979 0.171783 1.14892
396 1 1 14.2129 0.134586 0.31546
394 1 1 16.8472 18.5958 1.74749
400 1 1 18.0136 18.1846 34.5129
398 1 1 17.8293 0.426043 34.6528
401 1 1 1.58879 18.2307 1.08145
402 1 1 18.8179 0.686837 2.15557
403 1 1 18.7251 1.24302 3.82322
404 1 1 0.113904 0.0385884 1.12286
405 1 1 1.74372 0.595712 0.692984
406 1 1 2.62696 3.22354 37.1172
407 1 1 4.00901 17.714 4.93111
408 1 1 2.75656 0.865566 4.51327
409 1 1 2.95236 18.3125 2.75342
412 1 1 3.38125 18.3601 0.738198
410 1 1 4.8347 1.30743 3.12861
411 1 1 7.07032 16.74 3.02563
413 1 1 5.89263 18.8152 3.26232
416 1 1 6.95367 1.3607 1.71249
414 1 1 7.20532 2.06528 0.865913
415 1 1 8.77112 18.3227 5.29332
417 1 1 7.90023 1.27305 1.28363
418 1 1 9.21377 0.0399209 37.0387
419 1 1 9.70746 18.0305 1.16358
420 1 1 9.09474 1.61834 3.24204
421 1 1 10.5035 0.759875 0.349353
424 1 1 9.63547 1.24355 37.0769
422 1 1 10.4598 18.7938 1.39825
423 1 1 10.1006 18.5381 2.42543
425 1 1 11.6295 18.6237 2.84406
428 1 1 10.4832 0.0823721 3.71656
426 1 1 13.2389 0.742251 0.81742
427 1 1 13.1227 2.36728 3.3651
429 1 1 13.303 17.8988 1.96561
430 1 1 15.0702 0.432932 0.747739
431 1 1 14.2809 18.4846 3.46099
432 1 1 14.1265 17.2972 2.71581
433 1 1 14.7657 0.507873 1.93946
436 1 1 16.8134 1.53884 3.60277
434 1 1 16.9608 17.4103 1.02765
435 1 1 17.25 17.6039 2.28563
437 1 1 16.6991 17.256 37.5323
440 1 1 17.7904 2.82911 2.85859
438 1 1 0.796409 17.4501 0.983418
439 1 1 16.0323 0.478088 1.34669
441 1 1 18.3427 2.80739 3.81241
442 1 1 0.186183 3.45154 3.31819
443 1 1 2.18937 1.12475 3.69471
444 1 1 17.094 4.25756 1.7234
445 1 1 2.94044 4.34455 2.25762
446 1 1 1.64689 3.37977 1.54125
447 1 1 2.73505 1.77353 1.00925
448 1 1 1.16978 2.54277 2.32582
449 1 1 2.76801 1.36182 2.0153
452 1 1 3.68568 0.592825 1.85896
450 1 1 3.86588 4.94325 2.85433
451 1 1 4.08642 18.0628 3.30733
453 1 1 6.17323 2.06878 1.05981
456 1 1 3.94615 1.33428 2.6636
454 1 1 7.98805 4.39067 0.82587
455 1 1 5.17346 2.88701 2.80356
457 1 1 7.40531 3.45909 0.644846
458 1 1 10.6808 1.58226 3.48374
459 1 1 8.0537 1.49564 5.39131
460 1 1 7.58689 4.99512 1.58723
461 1 1 9.94074 2.01178 1.79683
464 1 1 11.3598 4.42773 36.811
462 1 1 10.8179 3.52092 2.84052
463 1 1 10.7234 1.21218 2.54573
465 1 1 11.7026 1.7549 2.76034
468 1 1 11.5374 0.875617 3.51778
466 1 1 13.2671 0.279932 4.10716
467 1 1 13.5768 0.451007 3.26487
469 1 1 10.652 1.33135 1.37018
470 1 1 12.5649 1.24781 2.06905
471 1 1 14.5159 0.996392 3.46764
472 1 1 14.7236 3.10555 1.29909
473 1 1 16.2115 2.27583 1.07419
476 1 1 14.2868 2.60389 2.12318
474 1 1 17.9216 0.654943 1.47257
475 1 1 16.9873 2.22046 4.46117
477 1 1 18.4552 1.68649 1.99074
480 1 1 16.7073 2.60969 3.1937
478 1 1 17.7356 1.76654 4.01128
479 1 1 17.5659 0.30283 4.31583
481 1 1 0.637902 2.90654 0.908186
483 1 1 17.6513 4.39858 2.92977
485 1 1 3.18391 6.09649 3.29973
487 1 1 3.12467 2.23733 2.49172
489 1 1 2.81088 5.56951 2.38818
491 1 1 4.51145 4.77738 2.024
493 1 1 6.09738 3.02435 0.265801
495 1 1 8.35648 2.68056 1.53087
497 1 1 6.87835 2.83718 2.88438
499 1 1 10.3328 3.0732 1.73136
501 1 1 9.17906 2.66155 36.9622
503 1 1 9.83144 5.41703 3.33822
505 1 1 13.1875 2.17334 2.12343
507 1 1 13.48 1.32641 2.79191
509 1 1 13.781 3.58993 1.6558
511 1 1 14.8061 2.45457 3.72613
513 1 1 16.8369 3.61851 0.129434
515 1 1 15.2999 3.42728 4.23098
517 1 1 15.7121 1.86262 2.63487
519 1 1 16.3189 4.59957 2.66795
482 1 1 1.86886 4.87924 3.19544
484 1 1 0.0466329 4.55684 3.62053
521 1 1 0.0455101 5.55897 3.17162
523 1 1 0.487593 6.09258 1.54642
486 1 1 3.8361 6.60067 4.20996
488 1 1 0.941818 4.27165 3.4281
525 1 1 0.708792 4.61574 2.29365
527 1 1 2.55617 5.29339 0.566221
492 1 1 4.80939 5.19891 3.06819
529 1 1 4.19285 6.70551 37.4836
490 1 1 5.08332 3.95657 2.81917
496 1 1 5.44238 2.37023 1.67191
531 1 1 5.39567 5.28577 2.08015
533 1 1 8.15059 5.62033 0.999398
494 1 1 8.82847 4.71122 1.35687
535 1 1 8.7232 5.1427 3.68082
498 1 1 9.00055 7.3933 1.4384
500 1 1 9.28928 3.29803 1.92444
537 1 1 7.41915 4.60841 2.9977
539 1 1 9.19735 9.04356 4.08408
504 1 1 8.74198 0.838867 2.09663
541 1 1 11.937 5.46082 0.601052
502 1 1 10.3975 5.15393 2.01819
508 1 1 15.1617 3.35952 3.04749
543 1 1 11.2085 4.68599 2.64115
545 1 1 9.37181 5.54793 2.38694
506 1 1 12.2811 4.32388 0.80227
547 1 1 11.1291 4.0709 1.7217
510 1 1 15.4032 3.86956 1.17003
512 1 1 12.634 6.78777 3.42044
549 1 1 14.0816 7.48965 2.08522
551 1 1 13.0929 4.4046 3.74464
516 1 1 13.6103 3.37035 3.78181
553 1 1 13.2373 4.68549 2.07189
514 1 1 17.4475 3.31596 1.8352
520 1 1 15.3216 4.68634 3.22555
555 1 1 14.9581 5.50452 2.27966
557 1 1 15.9868 5.04832 1.69035
518 1 1 18.591 5.02388 2.30023
559 1 1 18.5082 6.15001 2.34467
522 1 1 18.2526 6.78652 1.51519
524 1 1 0.687754 8.82955 1.01053
526 1 1 2.61418 6.60948 2.50787
528 1 1 2.30794 8.1252 3.62359
532 1 1 2.21134 7.81681 2.62209
530 1 1 5.87098 6.33713 3.35757
536 1 1 7.16214 5.69563 2.78995
534 1 1 7.5776 6.6036 2.12069
538 1 1 11.0686 5.94026 1.87422
540 1 1 10.5218 6.35189 4.17718
544 1 1 10.9239 6.70503 1.02834
542 1 1 12.9689 4.9683 1.12851
548 1 1 11.7616 7.90385 1.35617
546 1 1 13.4008 6.77311 1.85431
550 1 1 15.8699 6.11339 0.558289
552 1 1 12.3697 7.11298 2.23509
556 1 1 13.6469 6.42804 2.89134
554 1 1 15.1185 6.11185 1.22723
560 1 1 15.7453 6.39048 4.24127
558 1 1 17.115 5.97987 2.45104
561 1 1 0.645537 7.73297 1.80074
562 1 1 1.29345 8.28987 37.6556
563 1 1 18.1451 7.78969 2.59482
564 1 1 18.2583 8.12952 3.58478
565 1 1 1.57125 7.36829 0.425832
566 1 1 1.66313 8.58229 1.96226
567 1 1 2.10574 9.3706 2.42553
568 1 1 0.358639 9.70455 2.63824
569 1 1 2.77517 8.35703 -0.0318634
572 1 1 5.04182 8.56912 2.90816
570 1 1 5.96528 7.38034 3.11253
571 1 1 4.59732 8.17442 4.18272
573 1 1 4.09619 6.40649 1.24839
576 1 1 7.60901 9.80446 4.75255
574 1 1 6.88465 10.3423 1.96854
575 1 1 8.70532 6.03526 3.24485
577 1 1 6.08298 8.56489 2.97489
578 1 1 11.1886 10.6206 1.51254
579 1 1 7.75736 8.53208 3.35984
580 1 1 8.45886 10.606 0.610275
581 1 1 10.9873 8.55328 2.95055
584 1 1 9.75563 9.08451 3.09567
582 1 1 11.218 9.11369 2.0486
583 1 1 10.8373 8.33065 1.04194
585 1 1 10.431 9.02728 0.257159
588 1 1 11.5543 6.2431 4.24562
586 1 1 12.2601 8.96457 1.4934
587 1 1 11.6839 7.70608 2.61677
589 1 1 14.1988 7.129 0.374673
590 1 1 14.7192 10.6287 1.22053
591 1 1 14.3151 6.37992 2.13812
592 1 1 14.6237 9.62596 0.876796
593 1 1 15.2313 6.83047 0.116765
596 1 1 14.0707 9.55627 2.62995
594 1 1 16.0449 7.18448 1.48886
595 1 1 14.856 8.73138 2.67628
597 1 1 17.47 9.10205 3.41286
600 1 1 17.5478 11.1411 0.168641
598 1 1 17.8942 7.88903 1.60327
599 1 1 17.1438 8.04682 2.62914
601 1 1 1.53681 9.64618 0.788468
603 1 1 18.8019 11.1989 1.88919
605 1 1 2.40576 9.32805 1.33744
607 1 1 3.11861 7.99663 0.923505
609 1 1 5.08509 9.63197 1.30885
611 1 1 4.80892 10.1792 3.69589
613 1 1 6.22694 8.42777 1.92952
615 1 1 6.99715 10.1051 3.82254
617 1 1 7.66955 7.71492 37.5351
619 1 1 8.96492 8.85751 2.27962
621 1 1 9.49974 11.1714 2.76381
623 1 1 10.2465 7.96521 1.9918
625 1 1 11.6545 9.34735 0.731854
627 1 1 10.8772 12.1956 1.68133
629 1 1 14.1655 11.086 4.40818
631 1 1 15.9498 7.42497 3.45726
633 1 1 13.7819 8.58152 1.51421
635 1 1 16.1231 8.03938 5.17198
637 1 1 18.1316 8.89353 1.94617
639 1 1 16.4036 11.6218 2.55314
602 1 1 16.7932 12.5025 4.25549
604 1 1 1.08229 11.7203 3.28791
641 1 1 17.1055 13.5871 2.57854
643 1 1 2.43822 12.4483 2.60101
606 1 1 3.53842 9.01885 1.19062
608 1 1 0.711841 12.0182 4.21482
645 1 1 2.994 10.9011 1.17394
647 1 1 4.20744 11.2088 1.43215
612 1 1 3.95375 9.54309 2.61108
649 1 1 4.14323 9.76139 1.6036
610 1 1 5.68293 10.8347 1.9865
616 1 1 7.37705 9.2003 2.01715
651 1 1 7.20858 12.631 3.23589
653 1 1 5.85693 10.5889 3.53212
614 1 1 7.31667 11.223 1.44953
655 1 1 7.47134 13.3881 2.60173
618 1 1 7.67315 10.7866 2.43015
620 1 1 6.73778 11.9647 4.31385
657 1 1 8.16503 10.5568 36.7718
659 1 1 8.04615 10.6654 3.57411
624 1 1 8.86317 9.80485 2.63414
661 1 1 9.48508 11.4697 1.54683
622 1 1 9.47231 12.4239 2.43815
628 1 1 10.3222 9.72535 4.21906
663 1 1 8.97326 12.3916 3.44666
665 1 1 13.0673 9.6203 2.35107
626 1 1 14.0025 10.2111 5.15013
667 1 1 12.2266 10.1721 3.85322
630 1 1 14.4371 11.9602 1.85993
632 1 1 14.0886 12.2061 4.04382
669 1 1 13.8564 12.0578 2.7499
671 1 1 13.3378 13.7519 4.1595
636 1 1 15.2555 10.1914 2.06189
673 1 1 14.4778 14.5677 3.36975
634 1 1 15.4537 7.78372 2.56476
640 1 1 16.3516 9.51981 3.032
675 1 1 14.5488 13.6326 2.89228
677 1 1 16.2744 11.1602 0.841557
638 1 1 15.3399 11.7514 2.37571
679 1 1 16.7118 13.6035 0.615424
642 1 1 18.3235 10.0997 1.74791
644 1 1 16.1732 13.1299 3.68879
646 1 1 2.66064 12.8074 0.881284
648 1 1 2.57479 14.9752 4.11367
652 1 1 2.73374 12.1361 1.51443
650 1 1 5.01684 12.7316 1.1941
656 1 1 5.1034 12.8218 3.07715
654 1 1 4.89925 13.4305 3.9227
658 1 1 8.28351 11.8451 0.805719
660 1 1 5.88008 14.0781 2.58815
664 1 1 11.796 12.3244 3.82532
662 1 1 10.5089 11.9119 3.10445
668 1 1 11.0604 10.216 2.47494
666 1 1 12.4442 13.5915 1.50567
670 1 1 14.4332 14.1685 1.31702
672 1 1 13.5385 12.9914 2.27261
676 1 1 11.4184 11.7344 2.45613
674 1 1 15.1477 12.9121 1.99349
680 1 1 17.2018 13.7273 3.72739
678 1 1 18.4504 15.4631 2.93838
681 1 1 1.20055 14.6816 3.52946
682 1 1 0.183177 16.7698 2.53201
683 1 1 17.7547 12.4004 3.16806
684 1 1 17.5606 14.7863 3.37077
685 1 1 18.032 13.7246 2.42905
686 1 1 3.31259 13.884 1.98977
687 1 1 1.97432 13.3985 2.11658
688 1 1 3.24576 14.8374 2.77715
689 1 1 4.09315 14.1867 2.66102
692 1 1 4.48909 14.7773 3.45091
690 1 1 4.96342 17.587 1.69855
691 1 1 5.04668 13.6576 2.12776
693 1 1 4.78712 15.0016 2.49089
696 1 1 6.36434 15.9337 1.86598
694 1 1 7.08583 14.4172 2.10855
695 1 1 5.5057 14.4671 3.59475
697 1 1 6.79581 12.9322 1.93383
698 1 1 8.85267 17.1009 0.937292
699 1 1 9.70562 13.5465 3.2257
700 1 1 7.85482 15.1944 1.98097
701 1 1 8.5507 13.073 2.75089
704 1 1 9.67 15.4052 3.24145
702 1 1 11.5144 13.2753 0.471301
703 1 1 8.97697 14.1963 3.53547
705 1 1 11.6477 12.8651 2.67371
708 1 1 11.5577 14.1272 0.875039
706 1 1 13.7058 14.0784 2.31584
707 1 1 11.5414 11.2193 3.44479
709 1 1 15.4975 13.6034 0.825171
710 1 1 14.5981 15.3064 4.4574
711 1 1 13.2481 14.8975 3.73762
712 1 1 12.8626 14.452 2.82838
713 1 1 15.4539 13.2243 2.90608
716 1 1 15.8711 14.1072 3.40534
714 1 1 17.0162 16.1571 37.5624
715 1 1 14.4913 13.3676 4.2267
717 1 1 17.506 15.844 2.28007
720 1 1 16.5083 15.0679 2.17286
718 1 1 18.2212 14.1266 4.04246
719 1 1 1.69327 14.326 4.69794
721 1 1 1.05311 15.6646 1.89308
723 1 1 18.4892 14.011 6.01234
725 1 1 3.07035 15.1908 1.28085
727 1 1 1.87047 17.9205 2.52521
729 1 1 3.58758 15.828 3.58257
731 1 1 4.56815 17.3392 0.600766
733 1 1 5.64613 15.0909 1.4525
735 1 1 8.03568 17.1278 37.1668
737 1 1 8.91952 16.5395 2.43881
739 1 1 9.79494 17.4685 3.73681
741 1 1 8.49406 17.3284 3.23601
743 1 1 9.0443 15.3356 2.29911
745 1 1 11.9458 16.5268 1.74678
747 1 1 12.6714 15.2098 0.888868
749 1 1 15.4634 15.0821 1.44258
751 1 1 16.8976 15.7909 1.15765
753 1 1 17.8262 16.604 0.989034
755 1 1 15.5172 15.5307 2.7521
757 1 1 17.7825 16.7311 2.66426
759 1 1 16.7425 16.2326 2.94223
722 1 1 1.60856 16.4431 2.31266
724 1 1 18.738 17.2178 3.76433
761 1 1 0.964406 17.5085 2.36929
763 1 1 1.65107 18.8238 3.15499
726 1 1 1.74195 17.25 3.89043
728 1 1 1.04265 18.1629 3.9906
765 1 1 5.77034 1.16229 2.0211
767 1 1 2.91264 18.1832 4.10643
732 1 1 5.057 0.303607 2.29176
769 1 1 1.82578 17.1718 1.70319
730 1 1 3.25327 16.776 1.39249
736 1 1 7.92284 14.6141 3.91897
771 1 1 5.65037 18.4828 1.84095
773 1 1 6.10522 16.9395 2.39775
734 1 1 8.27729 17.9037 1.77145
775 1 1 7.31774 18.0927 1.32596
738 1 1 8.40972 15.5506 1.19186
740 1 1 7.99381 16.4576 3.97107
777 1 1 7.94112 16.7237 1.4137
779 1 1 7.53644 17.5707 2.45467
744 1 1 9.40826 17.5354 2.56151
781 1 1 8.8684 17.3715 37.5435
742 1 1 9.12982 14.1763 1.72144
748 1 1 11.0565 15.8915 2.46134
783 1 1 10.3439 17.6159 2.10618
785 1 1 11.2653 17.3051 0.0642799
746 1 1 11.0591 16.8843 2.16631
787 1 1 13.5223 16.0933 3.55326
750 1 1 14.6141 16.8792 1.6763
752 1 1 14.4845 15.7588 1.29669
789 1 1 13.5451 16.4681 2.09242
791 1 1 15.7154 17.3695 2.55199
756 1 1 14.6601 16.3021 2.59459
793 1 1 15.6778 18.4693 0.902944
754 1 1 17.6659 17.0411 37.6384
760 1 1 18.0274 18.3938 1.80783
795 1 1 14.9398 17.5195 0.184408
797 1 1 18.2718 18.0582 0.856965
758 1 1 18.8896 16.5522 0.834591
799 1 1 16.0765 17.6466 1.5936
762 1 1 0.842885 0.568817 3.02403
764 1 1 0.74754 18.4981 1.90809
766 1 1 2.87172 17.3708 3.41699
768 1 1 2.24376 17.6057 0.0210493
772 1 1 5.21334 18.132 3.96048
770 1 1 6.53192 0.438243 1.95542
776 1 1 5.03223 16.2351 2.34686
774 1 1 7.94461 0.0484068 2.1771
778 1 1 8.89945 18.8285 2.76479
780 1 1 8.03878 0.718664 3.28489
784 1 1 10.355 17.4978 0.501092
782 1 1 9.9627 18.4223 0.207182
788 1 1 11.3998 16.6401 3.22818
786 1 1 12.3773 18.2384 1.35107
790 1 1 13.3299 18.2966 0.857366
792 1 1 12.5317 16.7621 3.00953
796 1 1 14.6094 17.9613 1.97755
794 1 1 14.9654 18.029 36.643
800 1 1 15.9798 18.1408 3.78572
798 1 1 0.370955 18.1306 3.13174
801 1 1 -0.0261399 2.46452 2.68647
802 1 1 3.32355 0.72671 3.17242
805 1 1 1.5594 0.898448 5.06879
806 1 1 2.36158 1.83012 4.51162
809 1 1 5.2276 0.039769 4.94932
810 1 1 4.90136 18.0759 2.64299
813 1 1 5.96943 0.256166 4.39834
814 1 1 5.90869 2.97668 3.81912
817 1 1 6.42077 18.0668 6.42892
818 1 1 9.69014 0.845556 2.59501
821 1 1 9.81397 1.11391 3.83423
822 1 1 10.2291 18.0475 4.5038
825 1 1 12.3436 18.2017 3.62268
826 1 1 12.391 0.76572 4.40834
829 1 1 13.3958 17.7904 3.51973
830 1 1 14.8884 0.218329 4.2156
833 1 1 17.5389 18.3937 3.37443
834 1 1 16.7927 0.454634 5.05005
837 1 1 0.469356 0.0904288 4.67608
838 1 1 18.5877 2.45275 1.37933
841 1 1 0.145542 2.23287 4.439
842 1 1 18.3558 3.83796 4.25036
845 1 1 3.5734 1.64009 5.15712
846 1 1 2.39345 3.59215 3.40834
849 1 1 3.04054 18.7282 5.17587
850 1 1 4.32018 0.18256 3.11002
853 1 1 5.17622 2.1315 3.71276
854 1 1 7.94392 1.66784 2.27149
857 1 1 6.19848 1.67849 2.91767
858 1 1 9.27378 3.67832 4.59419
861 1 1 10.0491 2.27031 3.94686
862 1 1 9.391 3.88894 3.54321
865 1 1 10.7219 2.987 4.43746
866 1 1 11.8531 2.7083 3.28771
869 1 1 13.1102 2.1777 4.67458
870 1 1 14.0458 2.8673 4.67035
873 1 1 15.7139 0.899601 4.03573
874 1 1 15.515 1.51021 1.36798
877 1 1 18.3 1.2792 6.46544
878 1 1 16.9092 3.77399 4.92147
881 1 1 17.6515 4.89819 3.87414
885 1 1 2.22471 2.84285 2.50387
889 1 1 3.66034 3.00919 2.97422
893 1 1 4.63221 2.26995 2.25057
897 1 1 8.66128 2.66048 3.38084
901 1 1 11.0204 4.16068 6.20967
905 1 1 9.76054 2.51883 2.74092
909 1 1 13.6422 3.30402 2.57805
913 1 1 15.9628 2.10915 4.0007
917 1 1 16.7986 3.19936 4.06945
882 1 1 18.5883 5.06536 4.42207
921 1 1 17.856 5.31257 2.94985
886 1 1 4.34067 6.03563 3.43104
925 1 1 2.28502 4.82915 1.42519
929 1 1 4.87451 5.76607 4.98319
890 1 1 5.87983 6.42595 5.61648
933 1 1 3.80935 4.0828 3.45418
894 1 1 7.71102 3.78607 1.68101
898 1 1 11.3419 5.26035 3.94088
937 1 1 8.62645 3.54658 1.05
941 1 1 7.76173 3.50805 2.71622
902 1 1 10.4784 4.32123 4.50937
945 1 1 10.04 5.3439 4.36325
906 1 1 12.5855 3.25544 4.69784
910 1 1 15.7697 2.06132 6.09838
949 1 1 14.6424 4.34246 4.06773
953 1 1 12.5074 3.48144 3.4624
914 1 1 14.7583 5.61611 3.32742
957 1 1 14.3955 6.61605 3.62139
918 1 1 16.572 4.25157 3.92055
922 1 1 2.25254 6.8375 3.4506
926 1 1 4.28456 9.32824 4.06513
930 1 1 4.417 7.1794 2.04622
934 1 1 9.18791 6.71856 2.49019
938 1 1 10.1338 7.0575 1.55561
942 1 1 12.0475 6.30255 1.31593
946 1 1 12.7003 3.83318 1.92073
950 1 1 11.5839 5.74408 2.94153
954 1 1 13.5173 6.21585 4.13708
958 1 1 16.4821 7.1147 2.61912
961 1 1 1.10279 7.80701 2.94444
962 1 1 1.29758 9.88469 2.18387
965 1 1 2.03339 5.41815 5.00224
966 1 1 3.50189 8.24888 3.92292
969 1 1 3.36366 7.56376 1.9218
970 1 1 3.28208 7.04471 3.12035
973 1 1 8.0022 6.82077 3.47138
974 1 1 4.72187 7.52287 6.59189
977 1 1 8.34289 4.62601 5.24491
978 1 1 8.4139 9.55172 3.59164
981 1 1 11.122 6.7021 3.08721
982 1 1 12.9074 9.2733 3.60604
985 1 1 11.4942 8.83691 5.38516
986 1 1 11.7096 8.10508 4.67942
989 1 1 13.1189 7.61149 3.08549
990 1 1 12.9944 9.89276 4.6859
993 1 1 13.82 8.57861 2.92421
994 1 1 14.0734 9.18171 6.37602
997 1 1 16.2891 8.50687 3.4763
998 1 1 0.171912 9.88252 4.15811
1001 1 1 17.9042 10.4662 2.81282
1005 1 1 3.29954 8.51597 2.56966
1009 1 1 6.15597 9.65064 4.41471
1013 1 1 6.1679 8.28411 4.27822
1017 1 1 8.77602 9.94413 4.71079
1021 1 1 9.10767 10.401 3.81245
1025 1 1 12.2956 10.4981 5.29678
1029 1 1 12.9844 7.97117 1.93697
1033 1 1 13.7748 9.32495 3.93157
1037 1 1 17.012 11.0357 3.36129
1002 1 1 18.591 12.5435 3.91878
1041 1 1 17.9238 12.0576 5.07458
1006 1 1 3.15107 9.95472 2.16067
1045 1 1 1.94514 11.5209 2.17147
1049 1 1 4.62665 10.7644 2.66424
1010 1 1 5.08804 9.64826 2.72793
1053 1 1 5.32206 11.7527 5.9897
1014 1 1 6.74755 10.8943 2.99812
1018 1 1 8.2002 10.7038 4.58499
1057 1 1 9.6104 11.234 6.41651
1061 1 1 8.5036 11.3177 2.18452
1022 1 1 7.89306 11.5927 4.0959
1065 1 1 9.75559 10.3061 4.7411
1026 1 1 12.7031 8.61189 2.76225
1030 1 1 14.497 10.2833 3.57145
1069 1 1 12.4713 11.5032 3.14231
1073 1 1 15.8922 9.25271 4.11829
1034 1 1 14.2301 10.8435 2.47889
1077 1 1 16.8325 12.6014 2.61908
1038 1 1 16.2551 10.4222 2.13601
1042 1 1 18.3154 13.5062 3.39962
1046 1 1 3.76234 13.0769 2.62606
1050 1 1 3.42196 12.2 2.37983