ITEM: TIMESTEP
800
ITEM: NUMBER OF ATOMS
8000
ITEM: BOX BOUNDS pp pp pp
0.0000000000000000e+00 1.8820720577620570e+01
0.0000000000000000e+00 1.8820720577620570e+01
0.0000000000000000e+00 3.7641441155241139e+01
ITEM: ATOMS id mass type x y z
1 1 1 1.26952 17.9786 37.3975
2 1 1 0.388804 0.91181 37.2056
3 1 1 0.887412 1.62128 3.17739
4 1 1 0.341517 3.86937 37.3429
5 1 1 1.92095 1.30608 0.14437
6 1 1 5.09531 1.37393 0.482562
7 1 1 3.89862 1.42368 0.511095
8 1 1 0.803271 1.42795 0.905034
9 1 1 4.76626 0.235743 35.2782
12 1 1 3.82606 0.517785 0.961555
10 1 1 4.17172 2.82251 1.12091
11 1 1 7.61517 0.951524 0.788075
13 1 1 5.00809 17.8727 1.18755
16 1 1 5.40891 18.1907 36.8448
14 1 1 5.85494 4.37213 0.256887
15 1 1 6.08929 18.5393 2.80468
17 1 1 7.86725 0.604204 36.7289
18 1 1 8.92306 1.97123 35.9178
19 1 1 7.9097 18.5186 0.61161
20 1 1 9.2665 2.29399 0.624149
21 1 1 9.43178 16.09 35.7878
24 1 1 11.4029 0.147418 35.8719
22 1 1 11.3255 0.99791 36.9488
23 1 1 10.195 16.5496 36.517
25 1 1 10.6247 18.7755 36.4746
28 1 1 10.2891 1.96949 37.0667
26 1 1 11.5697 1.84324 1.64719
27 1 1 11.0308 18.1826 1.64861
29 1 1 10.9585 17.6409 37.0779
30 1 1 14.431 2.26382 1.02962
31 1 1 13.0333 18.7467 0.527418
32 1 1 14.0803 18.7552 1.5038
33 1 1 15.5741 18.4063 36.8684
36 1 1 15.4076 0.637441 37.5051
34 1 1 16.019 2.30875 0.155284
35 1 1 18.7719 0.661327 0.968499
37 1 1 18.1568 0.374065 0.0208654
40 1 1 17.8259 1.25881 0.575331
38 1 1 0.305408 18.7918 36.5597
39 1 1 17.3509 0.323579 0.785063
41 1 1 1.96105 3.30149 0.688323
42 1 1 1.08396 3.74859 1.07788
43 1 1 1.64105 2.01782 2.51488
44 1 1 0.418991 3.54707 2.01253
45 1 1 2.01276 2.58418 37.4746
46 1 1 1.96219 3.75495 3.15704
47 1 1 3.20176 2.29007 1.05828
48 1 1 1.28002 3.33827 35.6768
49 1 1 4.38584 4.45253 37.5625
52 1 1 2.77749 1.40996 35.7236
50 1 1 3.17121 3.03576 0.200937
51 1 1 5.52183 0.317147 0.140196
53 1 1 7.05509 3.67132 0.0829497
56 1 1 4.9049 1.23282 1.68098
54 1 1 7.87484 4.3878 37.5379
55 1 1 7.77794 2.85683 1.80799
57 1 1 9.54172 0.230707 0.654843
58 1 1 11.8022 3.14916 36.9923
59 1 1 10.562 2.76603 0.158261
60 1 1 9.49186 1.94187 1.76338
61 1 1 8.7079 2.68971 35.129
64 1 1 12.1335 2.45473 2.31993
62 1 1 12.3021 2.52017 0.175012
63 1 1 12.8063 0.239369 3.19782
65 1 1 12.6271 1.71507 1.4807
68 1 1 13.161 2.74637 1.32835
66 1 1 13.2536 2.05765 0.612521
67 1 1 11.3086 1.34626 0.61128
69 1 1 13.9268 4.64258 35.9418
70 1 1 15.8407 5.2767 35.178
71 1 1 14.1393 1.21781 1.35471
72 1 1 14.6443 4.36789 37.4333
73 1 1 14.765 3.26803 37.1198
76 1 1 13.2006 2.82542 37.6177
74 1 1 16.2919 4.58098 0.144208
75 1 1 15.7299 3.68219 0.0491471
77 1 1 18.7295 2.57421 0.430768
80 1 1 16.351 3.18099 0.729741
78 1 1 18.0141 3.88305 37.3935
79 1 1 15.4909 2.71959 2.04076
81 1 1 0.281515 4.63435 1.45847
83 1 1 3.25265 3.49189 1.2168
85 1 1 2.88811 2.76249 36.2613
87 1 1 1.92386 2.19655 0.769074
89 1 1 4.67847 4.45303 0.986494
91 1 1 5.8721 5.12828 1.5792
93 1 1 5.20572 5.50846 0.765217
95 1 1 7.52174 5.35888 0.277391
97 1 1 10.1152 2.86648 1.13228
99 1 1 6.72937 4.23152 1.12026
101 1 1 10.6566 5.16442 36.1639
103 1 1 11.2186 3.80299 0.152946
105 1 1 12.7411 3.10409 36.3579
107 1 1 13.9528 5.24266 37.5056
109 1 1 13.6225 2.46209 36.6423
111 1 1 13.1685 3.83927 0.42256
113 1 1 14.8991 5.48911 0.347627
115 1 1 17.3322 3.32144 1.12931
117 1 1 17.6245 2.78476 0.396936
119 1 1 16.197 3.20866 2.74619
82 1 1 1.28508 4.83893 1.44415
84 1 1 17.5415 6.13853 0.939789
121 1 1 1.93309 4.69734 0.428408
123 1 1 2.28935 8.22438 36.5048
86 1 1 3.70069 4.96715 1.85008
88 1 1 1.72315 6.45268 3.08018
125 1 1 0.768831 6.93556 2.51252
127 1 1 0.866021 5.7008 0.696558
92 1 1 3.75118 6.0503 2.10536
129 1 1 3.92726 7.75833 37.4731
90 1 1 5.09765 6.22933 1.35241
96 1 1 6.65698 4.44509 2.13109
131 1 1 4.87201 5.35406 1.96903
133 1 1 4.58913 7.11103 36.7412
94 1 1 5.32835 6.09473 37.529
135 1 1 8.24137 5.23892 2.28968
98 1 1 9.41657 4.6 2.32082
100 1 1 9.97029 4.51333 0.608216
137 1 1 9.00819 5.62242 37.4706
139 1 1 10.1168 6.11461 37.3662
104 1 1 9.60896 4.55973 36.1971
141 1 1 7.58767 3.1425 36.396
102 1 1 10.5534 5.31889 0.978602
108 1 1 12.4022 4.6772 1.51223
143 1 1 10.3393 4.7067 37.3119
145 1 1 12.3561 6.78085 0.271131
106 1 1 12.4461 4.03736 37.1839
147 1 1 12.9412 7.4281 0.743711
110 1 1 13.6487 4.37236 36.8906
112 1 1 14.3256 5.34419 1.29737
149 1 1 12.8838 5.57696 1.10141
151 1 1 14.3724 4.38218 2.23402
116 1 1 14.7909 4.31112 1.40976
153 1 1 17.1289 7.00944 0.444464
114 1 1 15.4728 6.0197 36.5011
120 1 1 16.8311 5.78479 1.66761
155 1 1 15.2742 3.69587 2.40967
157 1 1 18.0242 3.97913 1.32738
118 1 1 16.2548 7.88764 37.6066
159 1 1 0.0120901 3.66387 0.755123
122 1 1 0.949972 5.34225 37.1956
124 1 1 16.3566 9.49542 1.59539
126 1 1 2.31771 4.15729 36.1844
128 1 1 2.58324 7.16261 36.3116
132 1 1 1.92522 6.77813 0.78531
130 1 1 6.96749 6.87776 1.27227
136 1 1 7.64261 7.91822 1.80491
134 1 1 9.98644 6.94348 0.31884
138 1 1 8.21681 7.17866 37.1457
140 1 1 10.4344 6.68953 2.7196
144 1 1 9.38752 7.5442 37.0839
142 1 1 9.93416 5.75583 36.4314
148 1 1 12.3558 8.9175 36.9183
146 1 1 13.8202 7.71387 1.15717
150 1 1 13.7585 7.9355 37.2784
152 1 1 12.8114 5.5573 2.45839
156 1 1 14.1903 5.73953 2.51996
154 1 1 14.8649 8.14973 0.130386
160 1 1 15.8499 5.63974 3.17118
158 1 1 1.39807 6.6483 1.75122
161 1 1 1.19425 6.52588 37.5047
162 1 1 0.670788 9.07008 36.6703
163 1 1 0.207701 8.09506 0.622266
164 1 1 0.109879 8.88782 37.5839
165 1 1 0.360424 7.94929 36.6082
166 1 1 3.26727 9.31417 34.8412
167 1 1 3.87799 10.103 36.3427
168 1 1 3.45671 9.28507 37.1386
169 1 1 5.81192 6.19572 36.547
172 1 1 4.83936 9.61231 37.1769
170 1 1 5.00963 7.96124 37.1371
171 1 1 6.47235 6.2182 2.15615
173 1 1 8.78035 6.47622 1.75327
176 1 1 3.71569 7.87361 1.22202
174 1 1 7.0208 8.36184 36.5157
175 1 1 6.57454 7.81937 0.373709
177 1 1 10.4746 7.7557 37.5873
178 1 1 8.94 8.51126 0.367105
179 1 1 7.65921 8.1729 0.770226
180 1 1 8.79006 7.75147 2.16718
181 1 1 11.6577 7.71108 35.6045
184 1 1 9.75393 8.06534 0.727009
182 1 1 11.2399 8.98241 37.1446
183 1 1 11.5587 7.99802 37.2832
185 1 1 10.4431 9.04786 36.3233
188 1 1 13.0882 8.46582 0.894376
186 1 1 13.8843 10.1259 37.3359
187 1 1 13.0877 10.2725 0.539715
189 1 1 11.2793 10.0121 37.1
190 1 1 14.3874 9.34944 0.39285
191 1 1 14.5767 7.16987 36.5438
192 1 1 12.8658 9.6232 36.4155
193 1 1 16.195 6.38679 2.14918
196 1 1 15.5518 7.08828 1.63728
194 1 1 17.2837 8.22588 0.622428
195 1 1 17.1659 6.77263 1.77034
197 1 1 17.4805 9.56084 1.41741
200 1 1 18.2072 9.85004 0.260931
198 1 1 18.0994 8.307 37.2036
199 1 1 18.7114 7.0199 37.4832
201 1 1 1.52637 9.29373 34.3651
203 1 1 1.5835 7.7016 0.876148
205 1 1 1.67831 10.8532 0.535545
207 1 1 2.70084 9.94198 0.234843
209 1 1 4.46306 8.76987 0.721144
211 1 1 4.81628 10.638 37.5091
213 1 1 7.0726 11.8348 36.9886
215 1 1 7.45079 9.34753 1.4657
217 1 1 8.3216 7.35385 1.3915
219 1 1 8.85065 7.25015 0.392163
221 1 1 9.48553 10.6575 2.41546
223 1 1 9.80356 9.47812 37.2402
225 1 1 9.59089 11.0187 0.99225
227 1 1 11.8256 9.82533 1.45371
229 1 1 12.4254 10.6785 36.5089
231 1 1 15.7587 8.10744 36.4513
233 1 1 16.4453 10.0771 36.939
235 1 1 16.1318 8.49337 1.6798
237 1 1 15.5241 9.85008 36.9058
239 1 1 18.4928 9.68543 1.35057
202 1 1 0.313938 8.81133 2.83102
204 1 1 0.53583 9.91437 0.423835
241 1 1 18.7008 10.9857 0.713685
243 1 1 0.0397564 12.6807 2.36787
206 1 1 3.31904 11.9307 0.457541
208 1 1 2.35077 10.3801 2.3579
245 1 1 2.02473 12.1279 0.188495
247 1 1 3.56613 12.3865 3.83142
212 1 1 4.60146 9.91655 0.589357
249 1 1 6.52554 12.8896 0.430988
210 1 1 5.00777 9.57967 36.1208
216 1 1 7.04069 11.7879 2.5682
251 1 1 4.62667 11.769 2.08778
253 1 1 6.1541 12.6473 2.44415
214 1 1 9.68186 9.71721 34.6803
255 1 1 8.25254 11.5896 3.2732
218 1 1 9.5636 9.11226 1.10114
220 1 1 7.73395 8.89472 37.4732
257 1 1 8.11749 14.4091 1.33571
259 1 1 8.27126 12.6108 0.989363
224 1 1 8.38582 10.1332 1.70186
261 1 1 7.22622 12.204 1.07513
222 1 1 7.45127 10.5351 1.20624
228 1 1 10.1559 11.532 0.391174
263 1 1 12.5024 11.075 1.08876
265 1 1 13.4157 11.7287 1.76557
226 1 1 11.5225 11.4354 36.8191
267 1 1 13.1842 10.3728 3.09293
230 1 1 13.4814 11.0913 0.846368
232 1 1 14.2414 8.9182 1.81719
269 1 1 13.4586 10.1062 1.81294
271 1 1 15.1451 12.0768 1.226
236 1 1 15.5994 10.5407 0.0355178
273 1 1 14.9001 11.2629 0.334901
234 1 1 16.7833 12.5019 36.1403
240 1 1 16.8143 11.3365 36.4229
275 1 1 14.1431 8.84839 36.9017
277 1 1 15.5578 12.1148 0.223683
238 1 1 17.5397 9.31932 37.2305
279 1 1 16.6427 12.1106 37.2406
242 1 1 0.734124 11.5283 1.20454
244 1 1 18.0575 15.452 1.62705
246 1 1 5.97045 12.4011 1.38828
248 1 1 1.35743 12.101 2.04698
252 1 1 3.66268 12.1442 1.66435
250 1 1 4.59215 12.7456 0.024628
256 1 1 6.06126 13.5405 1.26287
254 1 1 7.20893 13.745 0.141157
258 1 1 7.54757 13.417 1.44203
260 1 1 8.28394 14.6944 2.60344
264 1 1 9.60788 13.5085 1.18103
262 1 1 11.0998 10.1561 0.62768
268 1 1 12.6022 11.0253 2.14438
266 1 1 13.8545 11.3606 34.7046
270 1 1 14.057 11.9599 0.771339
272 1 1 12.3027 12.0073 2.40235
276 1 1 16.3882 12.2002 1.65403
274 1 1 15.0465 13.7537 37.0436
280 1 1 15.2222 15.1517 37.4947
278 1 1 17.6654 11.8791 0.128804
281 1 1 17.2476 12.7936 1.59218
282 1 1 1.90229 15.2632 3.29434
283 1 1 17.8477 12.4444 2.41186
284 1 1 2.15075 14.6886 2.51713
285 1 1 0.88381 11.6075 36.648
286 1 1 0.680422 13.4668 2.71798
287 1 1 4.25558 14.7305 0.950507
288 1 1 2.76934 16.2394 2.47511
289 1 1 3.07894 15.4318 37.0051
292 1 1 4.04474 15.8336 2.84886
290 1 1 4.29766 11.6433 37.3982
291 1 1 4.52586 13.6184 37.2369
293 1 1 5.8492 12.401 37.0342
296 1 1 5.65091 14.5008 0.275935
294 1 1 5.31688 14.2466 36.9061
295 1 1 5.26594 13.5654 0.520194
297 1 1 7.7473 14.5306 37.4522
298 1 1 10.392 15.4583 1.64663
299 1 1 7.20918 14.2532 0.99874
300 1 1 6.10628 15.4766 0.726419
301 1 1 9.18508 12.56 37.2361
304 1 1 10.0396 16.545 1.64166
302 1 1 10.2801 13.2076 1.9382
303 1 1 11.4765 11.2972 0.435818
305 1 1 13.3463 13.6702 0.122101
308 1 1 11.5916 12.9403 1.86029
306 1 1 11.95 16.3454 0.500995
307 1 1 12.0536 12.9895 37.2601
309 1 1 13.0424 12.7831 1.38872
310 1 1 12.6858 14.5427 1.2121
311 1 1 15.3642 13.2483 0.391766
312 1 1 15.548 16.1401 1.28476
313 1 1 14.2203 13.3299 35.9744
316 1 1 14.5158 16.2409 37.2223
314 1 1 18.5387 14.8476 36.9391
315 1 1 18.0762 13.8773 1.26826
317 1 1 16.311 15.4521 37.267
320 1 1 17.347 15.3962 4.33047
318 1 1 1.09833 16.5637 1.57933
319 1 1 0.309724 15.8516 1.81049
321 1 1 1.83135 16.8748 37.4748
323 1 1 1.98934 16.0211 1.48675
325 1 1 1.5581 14.714 0.974031
327 1 1 4.40948 16.267 0.129115
329 1 1 4.04196 14.823 36.8213
331 1 1 4.89219 15.5481 0.873342
333 1 1 6.04077 13.6647 36.9169
335 1 1 6.56691 18.0839 36.5922
337 1 1 4.4794 13.1978 1.19328
339 1 1 7.07198 15.588 1.43039
341 1 1 7.95931 16.8605 37.4131
343 1 1 8.74507 16.1021 1.11615
345 1 1 11.8382 14.6796 37.6111
347 1 1 11.3331 15.4757 0.545173
349 1 1 13.4361 12.9219 36.7353
351 1 1 16.3129 13.7969 1.74709
353 1 1 13.9273 16.9755 37.5397
355 1 1 13.9459 17.7895 35.3442
357 1 1 17.2647 14.7605 37.5915
359 1 1 0.716392 13.8863 4.461
322 1 1 0.286057 13.3169 36.2476
324 1 1 18.5763 17.6841 1.79354
361 1 1 2.0589 17.1359 36.5616
363 1 1 3.42453 17.476 2.15067
326 1 1 3.37362 15.4685 0.440055
328 1 1 2.82647 16.2975 0.585978
365 1 1 0.737235 14.288 0.445595
367 1 1 2.9945 16.6668 37.0252
332 1 1 4.7968 17.2478 37.4756
369 1 1 1.79037 18.4293 35.2553
330 1 1 5.9436 16.3755 0.355514
336 1 1 4.44252 17.9179 2.13006
371 1 1 3.95435 0.333557 37.4358
373 1 1 5.76079 17.0719 37.1697
334 1 1 6.43589 17.7371 0.208469
375 1 1 6.08742 17.0619 1.08161
338 1 1 7.19566 15.1591 35.6776
340 1 1 7.00613 16.9255 36.9558
377 1 1 8.92036 17.1655 0.267775
379 1 1 8.91076 15.0549 0.644606
344 1 1 7.00364 15.9258 0.362334
381 1 1 10.5444 14.8108 0.537011
342 1 1 8.46517 15.6955 37.3493
348 1 1 11.7232 15.0036 1.81716
383 1 1 11.2521 15.5223 37.1355
385 1 1 9.95115 16.0379 0.657593
346 1 1 11.0147 16.2929 1.35405
387 1 1 12.1673 18.2335 2.99883
350 1 1 16.5179 16.5255 1.90498
352 1 1 14.8391 17.827 1.10841
389 1 1 12.6145 17.9017 0.236237
391 1 1 12.7556 16.7825 1.16106
356 1 1 15.8062 16.1603 0.227421
393 1 1 16.5268 15.7421 0.824892
354 1 1 17.0831 16.6667 36.3291
360 1 1 0.218987 15.697 4.17417
395 1 1 16.8408 17.9822 0.323275
397 1 1 18.1678 15.146 0.320533
358 1 1 1.15821 15.9766 0.600683
399 1 1 18.1929 16.1216 0.037577
362 1 1 1.55265 0.28208 37.3159
364 1 1 18.7142 17.5956 37.5972
366 1 1 2.41314 0.0710045 0.533683
368 1 1 1.67478 0.774424 2.54202
372 1 1 2.72143 0.362009 36.1732
370 1 1 4.29536 18.1442 0.379341
376 1 1 6.98956 0.172302 0.731468
374 1 1 5.3261 18.1122 35.1719
378 1 1 9.03643 15.3736 34.9682
380 1 1 7.11641 1.30826 2.84335
384 1 1 9.97919 15.3289 36.5985
382 1 1 12.7059 18.1779 36.7203
388 1 1 11.4987 18.1163 0.431086
386 1 1 11.721 17.1837 0.876228
390 1 1 14.8244 0.312935 36.5513
392 1 1 10.9577 0.491498 1.09863
396 1 1 14.4722 18.7497 37.5118
394 1 1 16.6789 18.5848 1.62738
400 1 1 17.7691 17.8377 34.109
398 1 1 18.3387 0.455788 34.6063
401 1 1 1.86887 18.704 1.68698
402 1 1 18.6436 0.43761 2.09021
403 1 1 18.2194 1.44586 2.98327
404 1 1 0.857194 18.6273 1.37221
405 1 1 1.60373 0.644 0.915782
406 1 1 1.57773 3.57131 37.272
407 1 1 3.39639 17.6079 5.6624
408 1 1 3.4464 0.600348 4.43853
409 1 1 2.37601 18.6414 2.95551
412 1 1 3.45337 18.1181 0.9133
410 1 1 5.02901 1.54131 2.97704
411 1 1 7.09698 17.0815 2.76936
413 1 1 5.21086 0.397688 3.91515
416 1 1 7.62804 1.74169 1.66537
414 1 1 7.88071 2.10714 0.365288
415 1 1 8.7366 0.0898775 5.23125
417 1 1 8.56336 1.37394 0.87305
418 1 1 9.68891 0.352039 37.0779
419 1 1 9.75855 17.4705 1.16451
420 1 1 8.95717 2.06269 2.71052
421 1 1 10.4528 0.632549 0.182984
424 1 1 9.59746 1.226 0.256523
422 1 1 10.0641 18.5795 1.33851
423 1 1 10.324 18.773 3.24603
425 1 1 11.3752 0.262004 2.43119
428 1 1 10.6188 0.370914 4.40847
426 1 1 13.4032 0.743398 1.80578
427 1 1 13.0062 2.5773 3.42836
429 1 1 12.473 17.5042 2.05198
430 1 1 15.0809 0.149304 0.961467
431 1 1 14.1404 18.1631 3.4145
432 1 1 14.0079 17.0964 2.85484
433 1 1 15.0693 0.616181 1.90267
436 1 1 16.7021 1.54638 3.60414
434 1 1 17.2802 17.5309 1.19096
435 1 1 17.7828 17.3199 2.23773
437 1 1 16.5365 16.8906 0.502756
440 1 1 17.7412 3.47358 3.24005
438 1 1 0.576684 17.6158 0.763485
439 1 1 16.137 0.905598 1.65326
441 1 1 0.045133 2.35885 3.39828
442 1 1 0.395059 3.89644 3.18092
443 1 1 2.12082 0.94553 3.83012
444 1 1 17.1485 4.75768 1.19416
445 1 1 2.76395 4.34126 1.91359
446 1 1 1.74765 3.76524 2.05463
447 1 1 2.43034 1.7685 1.52997
448 1 1 0.783136 2.36672 2.07059
449 1 1 2.91317 0.466123 1.85198
452 1 1 3.38174 18.4748 2.33225
450 1 1 3.9609 5.30191 3.25872
451 1 1 3.76042 17.9686 3.12324
453 1 1 5.96358 2.27502 0.483879
456 1 1 3.95283 2.06342 3.13525
454 1 1 7.76613 4.65839 1.39033
455 1 1 4.98547 3.24949 2.87718
457 1 1 8.11994 3.88288 0.95824
458 1 1 11.4326 1.15338 4.09097
459 1 1 8.85902 1.03935 5.14989
460 1 1 7.02683 5.3224 1.42641
461 1 1 10.5881 1.86664 2.20499
464 1 1 11.2036 4.26554 36.9144
462 1 1 10.5629 4.13857 2.55937
463 1 1 11.4848 1.24715 2.77214
465 1 1 11.903 2.46587 3.36082
468 1 1 11.2103 0.360073 3.41838
466 1 1 13.5104 0.214597 3.92048
467 1 1 14.0904 0.88581 3.26674
469 1 1 9.8557 0.849675 1.37216
470 1 1 12.7347 1.15546 2.45542
471 1 1 14.9552 1.29984 4.15925
472 1 1 14.6151 3.44344 0.774865
473 1 1 16.2989 1.92596 1.64483
476 1 1 14.5136 3.19463 1.98534
474 1 1 17.5942 0.790845 1.98174
475 1 1 16.7417 1.93317 5.05345
477 1 1 18.5915 1.83421 2.05576
480 1 1 16.4674 2.12404 2.76989
478 1 1 18.015 1.7181 4.32787
479 1 1 18.2212 18.7588 3.61763
481 1 1 0.89201 2.54379 1.00109
483 1 1 17.259 4.36674 2.65899
485 1 1 3.30594 6.51751 3.17022
487 1 1 2.9659 1.775 2.43902
489 1 1 2.97066 5.18035 2.57395
491 1 1 4.43819 3.91183 1.9758
493 1 1 6.07846 2.84736 37.2541
495 1 1 8.6244 2.39086 1.4744
497 1 1 6.40804 2.32235 2.31932
499 1 1 9.86317 3.05164 2.14669
501 1 1 9.53487 3.28441 37.3195
503 1 1 10.7973 5.10303 3.08918
505 1 1 13.7684 2.6031 2.58553
507 1 1 13.3733 1.66616 2.97553
509 1 1 13.6217 3.84821 1.3653
511 1 1 15.1821 2.26176 3.55814
513 1 1 16.7944 4.08655 37.0561
515 1 1 15.8092 3.09491 4.44609
517 1 1 15.2557 1.06108 3.0909
519 1 1 16.3848 4.10503 2.27315
482 1 1 1.86382 4.60934 2.74574
484 1 1 18.5355 5.26388 3.2269
521 1 1 0.445515 5.92564 3.08424
523 1 1 0.723964 5.83289 1.8969
486 1 1 4.01631 6.66504 4.29653
488 1 1 0.487234 4.61991 3.85952
525 1 1 0.650548 5.04671 2.64088
527 1 1 2.9813 5.18674 0.167637
492 1 1 5.06171 5.12951 3.59777
529 1 1 4.33962 6.56058 0.0141073
490 1 1 4.58156 4.2612 3.14509
496 1 1 5.39596 2.18225 2.10374
531 1 1 5.65213 5.7804 2.48065
533 1 1 8.60156 5.3759 1.17375
494 1 1 9.12939 4.35273 1.30392
535 1 1 8.97454 4.32832 3.8749
498 1 1 9.39587 7.5646 1.45471
500 1 1 8.89841 3.36713 1.70012
537 1 1 7.60065 4.49905 3.11695
539 1 1 9.17562 8.84608 3.42479
504 1 1 8.83335 0.884495 1.97093
541 1 1 11.6506 5.0142 0.900534
502 1 1 10.5219 5.43445 2.08764
508 1 1 14.6046 3.25562 3.11247
543 1 1 11.7184 4.78034 2.70272
545 1 1 9.23682 5.59349 2.1847
506 1 1 12.0696 3.81425 0.617517
547 1 1 11.0561 4.25203 1.722
510 1 1 15.7481 3.99255 1.22337
512 1 1 12.3227 6.20457 3.69585
549 1 1 14.4836 8.02967 2.24019
551 1 1 12.7289 4.44415 4.19177
516 1 1 13.1623 3.60221 3.81996
553 1 1 13.4635 4.94086 1.6556
514 1 1 16.7785 2.76855 1.91785
520 1 1 15.2078 4.76024 2.88218
555 1 1 15.3058 5.59339 2.2402
557 1 1 15.5168 5.13041 1.14763
518 1 1 18.175 4.94259 1.95273
559 1 1 18.2778 5.82625 2.34274
522 1 1 0.0956593 6.73024 1.71035
524 1 1 0.652283 9.06629 1.28363
526 1 1 2.11938 7.17183 2.40836
528 1 1 2.34082 8.22498 2.89884
532 1 1 2.3946 8.06272 1.83283
530 1 1 6.12898 6.28111 3.23157
536 1 1 7.28832 5.4753 2.65412
534 1 1 7.47363 6.66491 2.1303
538 1 1 12.0813 5.87938 1.76678
540 1 1 10.4337 6.14793 4.76739
544 1 1 10.8874 6.38416 1.04062
542 1 1 12.4885 5.05013 -0.0205842
548 1 1 11.1128 7.67822 1.04248
546 1 1 13.2096 6.79838 1.71882
550 1 1 16.2254 6.45583 0.804507
552 1 1 12.4146 6.47745 2.72457
556 1 1 13.4431 6.43148 2.85765
554 1 1 14.9244 6.21017 1.49049
560 1 1 15.0041 6.28881 4.04115
558 1 1 16.8571 6.71467 2.98803
561 1 1 0.601119 7.5494 1.39701
562 1 1 1.2086 8.52183 0.165162
563 1 1 18.7034 7.72692 2.24723
564 1 1 18.2541 7.28724 3.31046
565 1 1 1.57691 7.32828 36.9235
566 1 1 1.45847 8.80081 1.99889
567 1 1 2.6485 9.35148 2.50993
568 1 1 0.564044 9.51576 2.17299
569 1 1 3.12512 8.23007 37.0321
572 1 1 4.70951 8.73025 2.71853
570 1 1 5.09293 7.55014 3.80236
571 1 1 5.7248 8.41997 3.66024
573 1 1 3.9006 6.80125 1.08645
576 1 1 7.59707 9.90722 4.8772
574 1 1 6.64149 10.9746 1.87998
575 1 1 8.86729 5.03797 3.07875
577 1 1 5.31386 7.83146 2.61883
578 1 1 11.3197 10.8108 1.55462
579 1 1 8.16886 8.50608 3.0387
580 1 1 8.86108 10.7447 0.400637
581 1 1 10.9146 8.44436 2.94937
584 1 1 9.35855 9.6473 2.82685
582 1 1 11.0388 9.36612 2.22751
583 1 1 11.0625 8.93456 1.25846
585 1 1 10.7125 8.71588 0.329813
588 1 1 11.6729 6.57182 4.7261
586 1 1 12.1508 8.8001 1.61222
587 1 1 11.4502 7.58209 2.66346
589 1 1 14.7276 7.21369 0.894578
590 1 1 14.5057 11.5755 1.86107
591 1 1 14.8764 6.95487 2.29472
592 1 1 14.2039 10.3088 0.989398
593 1 1 15.7687 7.05101 0.0516565
596 1 1 13.5279 9.4938 2.80715
594 1 1 16.609 7.57603 1.42397
595 1 1 15.2377 9.11769 2.51944
597 1 1 17.7205 9.1799 3.10311
600 1 1 17.3017 10.6556 0.143931
598 1 1 17.6044 7.65096 1.56187
599 1 1 17.3157 8.52094 2.30201
601 1 1 1.95761 9.61984 0.912842
603 1 1 18.7068 11.1926 1.91343
605 1 1 2.68036 8.91043 1.21788
607 1 1 3.31786 8.39123 0.460875
609 1 1 5.49651 9.28314 0.489321
611 1 1 4.70778 10.6299 3.95689
613 1 1 6.72343 8.4433 1.75525
615 1 1 7.22057 9.61931 3.47255
617 1 1 7.44073 7.95638 37.4902
619 1 1 9.34469 8.77038 2.4071
621 1 1 9.11567 11.1999 3.2357
623 1 1 10.3414 8.47853 1.84818
625 1 1 11.7625 8.58647 0.560231
627 1 1 10.1445 11.7501 1.81069
629 1 1 14.8574 11.2071 4.74505
631 1 1 15.9582 7.20029 3.78113
633 1 1 13.1101 8.65711 1.84204
635 1 1 16.716 8.49178 4.61276
637 1 1 18.3024 9.14827 2.19554
639 1 1 16.4766 11.1874 2.11646
602 1 1 16.5673 12.0242 4.14589
604 1 1 0.984233 11.9683 2.9978
641 1 1 16.3684 13.6753 2.82931
643 1 1 2.63455 12.9397 2.08159
606 1 1 3.68352 9.44386 1.1523
608 1 1 0.683024 11.7053 4.0169
645 1 1 3.12936 10.9226 0.85286
647 1 1 4.28703 11.2959 0.803732
612 1 1 3.63371 9.82676 2.72923
649 1 1 4.43077 10.1651 1.66191
610 1 1 5.5575 11.6243 2.19257
616 1 1 8.50707 8.90971 1.63616
651 1 1 6.73567 12.569 3.46563
653 1 1 5.82655 10.3937 3.01805
614 1 1 7.60065 11.5055 1.70647
655 1 1 7.95801 13.7267 2.39193
618 1 1 7.67151 10.6849 2.44452
620 1 1 6.47495 12.077 4.44024
657 1 1 8.13692 9.92037 37.4055
659 1 1 8.00289 10.6095 3.6065
624 1 1 8.52535 10.3109 2.71098
661 1 1 9.10238 12.1809 1.50207
622 1 1 9.24816 12.3276 2.61444
628 1 1 10.2911 9.71027 3.79283
663 1 1 8.9896 13.095 3.76787
665 1 1 12.543 9.56782 2.17146
626 1 1 14.5765 9.98109 4.50861
667 1 1 11.8224 10.8318 3.18702
630 1 1 14.1714 12.7496 2.30229
632 1 1 13.8992 11.4056 3.9521
669 1 1 13.8593 11.6851 2.7046
671 1 1 12.9657 13.8543 4.50159
636 1 1 14.5259 9.84343 2.8575
673 1 1 13.8586 15.0435 3.71636
634 1 1 15.4308 7.82816 2.59668
640 1 1 16.0673 9.68873 3.25937
675 1 1 13.93 13.7617 3.01458
677 1 1 15.8593 11.1233 1.15845
638 1 1 15.2044 12.0788 2.58639
679 1 1 16.5249 13.255 0.644689
642 1 1 18.0659 10.148 2.20043
644 1 1 15.9591 13.4467 4.13934
646 1 1 3.7662 13.6266 0.455411
648 1 1 2.50022 14.9531 4.366
652 1 1 2.6616 11.8455 1.44963
650 1 1 4.69191 12.1516 1.14151
656 1 1 5.23441 13.0157 3.20832
654 1 1 4.35327 13.6391 4.11306
658 1 1 8.21485 11.5753 0.913006
660 1 1 6.22034 14.6937 2.50207
664 1 1 11.2801 12.7811 3.86831
662 1 1 10.3892 11.6529 3.01797
668 1 1 11.5731 10.218 2.40922
666 1 1 12.0243 14.0181 1.98873
670 1 1 14.611 14.3717 1.26579
672 1 1 12.7878 13.1121 2.37422
676 1 1 11.2199 11.8813 2.21236
674 1 1 15.2648 13.19 1.78308
680 1 1 17.0747 13.4763 3.91636
678 1 1 18.2005 15.1273 2.74393
681 1 1 0.94695 14.5749 3.67965
682 1 1 0.303211 16.2755 2.77034
683 1 1 17.16 12.1196 3.18931
684 1 1 17.4242 14.5229 3.49237
685 1 1 18.3565 14.0905 2.35387
686 1 1 3.42185 13.816 1.84048
687 1 1 2.57861 13.7724 2.84603
688 1 1 3.37209 14.4221 3.33637
689 1 1 4.3294 14.3962 2.54686
692 1 1 4.50245 15.2769 3.56044
690 1 1 5.29085 17.2396 2.14175
691 1 1 5.35879 13.32 2.30559
693 1 1 4.55499 15.788 1.78135
696 1 1 6.53041 15.7421 2.44757
694 1 1 7.38441 14.7346 2.09241
695 1 1 5.4108 14.0134 3.62661
697 1 1 6.62409 13.7289 2.25264
698 1 1 8.74209 17.0869 1.72857
699 1 1 10.2324 13.5661 3.32403
700 1 1 7.60461 16.0067 2.72312
701 1 1 9.28139 13.5986 2.75972
704 1 1 9.89809 15.7183 2.70785
702 1 1 12.4225 13.2047 0.531302
703 1 1 9.69608 14.7509 3.07711
705 1 1 11.6707 12.9397 2.89177
708 1 1 11.6636 14.3308 1.07896
706 1 1 13.6503 13.969 1.84461
707 1 1 11.9069 12.0111 3.32922
709 1 1 15.5156 13.862 1.13372
710 1 1 15.2695 15.9933 5.22021
711 1 1 12.9112 15.143 4.54212
712 1 1 12.877 14.7443 3.29177
713 1 1 15.362 13.3077 2.96309
716 1 1 15.9622 14.6395 3.05781
714 1 1 17.3089 15.8547 37.3584
715 1 1 15.1705 13.1611 4.68717
717 1 1 17.2672 14.8564 2.54693
720 1 1 16.19 15.023 2.20681
718 1 1 18.1783 14.8305 4.35817
719 1 1 1.64157 14.2537 4.44781
721 1 1 1.20783 14.9581 2.04798
723 1 1 18.3281 13.6613 5.99277
725 1 1 3.17212 15.0732 2.41415
727 1 1 2.05868 17.6028 2.50299
729 1 1 2.94652 15.647 3.47545
731 1 1 3.63961 17.0123 0.486557
733 1 1 5.77169 14.5808 1.31543
735 1 1 8.28611 17.6385 36.7209
737 1 1 8.42475 17.0091 3.11017
739 1 1 9.82218 17.7774 3.28376
741 1 1 8.8334 18.3175 3.42852
743 1 1 9.15869 15.3895 2.02262
745 1 1 11.9109 16.1293 1.67266
747 1 1 12.2782 15.397 0.602623
749 1 1 16.077 14.8652 0.964257
751 1 1 17.235 14.8758 0.952663
753 1 1 18.7348 16.7699 1.20771
755 1 1 15.8364 15.7597 3.13583
757 1 1 18.1035 16.3294 2.65019
759 1 1 17.0634 17.1561 3.51324
722 1 1 1.07733 16.7618 3.63921
724 1 1 0.230555 16.679 4.06384
761 1 1 0.582402 17.2735 2.71875
763 1 1 1.33509 18.6667 3.77239
726 1 1 1.87378 17.8032 3.4345
728 1 1 0.548632 17.7211 3.68587
765 1 1 6.0958 1.54168 1.59683
767 1 1 3.67541 18.4 4.18103
732 1 1 5.56164 0.606717 2.33499
769 1 1 1.59143 17.5532 1.21354
730 1 1 2.78899 16.9811 1.43091
736 1 1 8.37003 14.2648 3.81951
771 1 1 5.95505 0.0209712 1.25341
773 1 1 6.4052 17.5354 2.21005
734 1 1 8.18114 17.9235 1.7103
775 1 1 6.98628 17.8194 1.27377
738 1 1 7.94117 15.553 0.718064
740 1 1 7.09596 16.3078 3.73778
777 1 1 7.79139 16.6583 0.794856
779 1 1 7.81738 17.8493 2.9546
744 1 1 9.11762 17.6298 2.55037
781 1 1 9.3927 18.1871 0.117557
742 1 1 9.89306 14.4405 1.19585
748 1 1 11.071 15.8675 2.3818
783 1 1 10.3881 17.5337 2.27706
785 1 1 11.6408 16.9695 37.3972
746 1 1 11.2651 16.9429 2.33126
787 1 1 13.0085 15.9559 3.40221
750 1 1 14.6678 16.6887 1.99025
752 1 1 14.4576 15.8589 0.836775
789 1 1 13.5744 16.5542 1.82661
791 1 1 15.6576 16.6246 2.76887
756 1 1 14.5514 16.3797 3.36951
793 1 1 15.7379 17.7736 0.285607
754 1 1 17.9301 16.995 0.553342
760 1 1 17.8169 18.3644 1.71249
795 1 1 15.1353 16.9917 37.1095
797 1 1 18.6923 18.5173 0.697684
758 1 1 0.34648 16.5643 -0.00351178
799 1 1 15.593 17.2164 1.17616
762 1 1 0.706626 0.327121 3.05998
764 1 1 1.41321 18.6045 2.59363
766 1 1 2.89038 17.7937 3.58824
768 1 1 2.60262 17.5678 37.6415
772 1 1 4.70901 18.03 3.75852
770 1 1 6.61832 0.666307 1.74182
776 1 1 5.6887 16.3753 2.2859
774 1 1 7.43438 0.00243119 2.31544
778 1 1 9.18751 0.295296 2.85582
780 1 1 8.27211 0.940986 3.48212
784 1 1 10.474 17.0207 0.21654
782 1 1 10.5098 18.2925 0.084464
788 1 1 11.4665 16.3995 3.24972
786 1 1 11.9887 18.2232 1.35635
790 1 1 13.1163 17.7836 1.11399
792 1 1 12.1029 17.1043 2.91348
796 1 1 15.1585 17.8073 2.1318
794 1 1 14.6455 17.8936 36.3997
800 1 1 15.8965 18.6679 3.84547
798 1 1 18.6101 18.0891 2.77531
801 1 1 18.4092 2.92687 2.559
802 1 1 3.12068 0.614907 3.05532
805 1 1 1.38428 1.55411 4.48568
806 1 1 2.63934 1.97143 4.41413
809 1 1 4.39007 18.2308 5.18279
810 1 1 5.08438 18.3451 2.82578
813 1 1 6.17734 18.7269 4.04657
814 1 1 5.9788 3.19819 3.90049
817 1 1 6.22332 18.3209 6.25263
818 1 1 10.1465 0.622738 2.41662
821 1 1 9.73795 1.15969 3.21345
822 1 1 10.0233 18.4232 4.89589
825 1 1 11.8279 17.6513 4.01105
826 1 1 12.2819 0.500263 4.18401
829 1 1 13.1041 17.6879 3.31259
830 1 1 14.5334 0.207292 3.90307
833 1 1 17.7037 17.7874 3.204
834 1 1 17.4063 0.887096 4.50392
837 1 1 0.340593 18.6217 5.21931
838 1 1 18.416 2.99942 1.36799
841 1 1 0.172792 1.94591 4.59387
842 1 1 18.0509 3.87986 4.19824
845 1 1 3.59933 1.51025 5.16461
846 1 1 3.1155 3.36406 3.30719
849 1 1 2.88458 0.0818189 5.16682
850 1 1 4.51295 0.600877 2.63437
853 1 1 4.76006 2.5755 4.00834
854 1 1 8.05431 1.66287 2.69004
857 1 1 5.80034 2.24516 3.42716
858 1 1 9.03392 3.33106 4.28871
861 1 1 9.9828 2.17462 4.26047
862 1 1 9.9818 4.00449 3.42362
865 1 1 10.3604 3.38381 4.54858
866 1 1 11.111 3.24459 3.24768
869 1 1 12.1766 1.97464 4.30231
870 1 1 14.1336 2.77581 3.94116
873 1 1 16.1016 0.954622 4.47804
874 1 1 15.4713 1.38272 0.947994
877 1 1 18.3681 1.22756 6.30317
878 1 1 17.1042 3.31151 4.91139
881 1 1 17.5437 4.69578 3.81757
885 1 1 2.33643 2.78413 2.78383
889 1 1 4.03403 3.01162 2.72428
893 1 1 4.10693 2.16341 1.85034
897 1 1 8.66268 2.9819 2.92818
901 1 1 10.9063 3.87803 6.35137
905 1 1 9.69333 3.03473 3.32
909 1 1 13.6213 3.64217 2.69979
913 1 1 15.8598 1.97136 4.49142
917 1 1 16.7516 2.8861 3.97221
882 1 1 0.150157 5.39376 4.24463
921 1 1 17.8149 6.14678 3.25759
886 1 1 4.36666 6.58593 3.12645
925 1 1 2.70171 5.0815 1.09286
929 1 1 5.05115 5.48479 5.01124
890 1 1 6.17409 6.61414 5.46467
933 1 1 3.59931 4.08619 2.82956
894 1 1 8.09567 3.57503 2.42223
898 1 1 11.1687 5.36966 4.04592
937 1 1 9.32065 3.62212 0.676339
941 1 1 7.75138 3.54133 3.37373
902 1 1 10.7233 4.4771 4.2728
945 1 1 9.84427 4.99894 3.43561
906 1 1 12.7972 2.95187 4.86121
910 1 1 15.6851 2.14085 5.52121
949 1 1 14.0966 4.28038 4.00047
953 1 1 12.6042 3.24815 2.90255
914 1 1 14.2203 5.4339 3.6481
957 1 1 14.3658 6.47843 3.17366
918 1 1 16.5893 4.1242 3.64132
922 1 1 2.34384 6.9743 3.56168
926 1 1 4.27594 8.84682 3.61093
930 1 1 4.74234 7.10034 2.24788
934 1 1 9.11194 6.3476 2.9039
938 1 1 10.5757 7.53367 2.15575
942 1 1 12.1747 6.74918 1.26777
946 1 1 12.655 3.48715 1.63414
950 1 1 11.5658 6.06258 2.87318
954 1 1 13.2315 5.67671 3.85905
958 1 1 16.6511 7.6751 2.66254
961 1 1 0.827561 7.95303 2.60101
962 1 1 1.68608 10.0453 1.79452
965 1 1 1.33525 5.61225 4.94798
966 1 1 3.50967 8.2647 3.89319
969 1 1 3.1267 7.27334 1.81677
970 1 1 4.12479 7.78226 2.90596
973 1 1 8.12532 7.04963 2.95425
974 1 1 4.4189 7.41961 6.61328
977 1 1 8.48812 4.21766 5.63589
978 1 1 8.4276 9.52673 3.35046
981 1 1 11.2607 6.96083 3.60016
982 1 1 12.4918 9.76637 3.32475
985 1 1 11.1671 9.1286 4.8477
986 1 1 11.2655 8.1533 4.43502
989 1 1 12.3981 7.20196 3.52874
990 1 1 13.2312 10.3064 4.53252
993 1 1 13.5196 8.27855 2.7632
994 1 1 13.9839 10.0654 6.49921
997 1 1 15.9779 8.57779 3.08057
998 1 1 0.133945 10.2117 4.15836
1001 1 1 17.7325 11.3431 2.54568
1005 1 1 3.4201 8.41004 2.11563
1009 1 1 6.54739 9.92101 4.47617
1013 1 1 6.38264 8.76264 4.4225
1017 1 1 8.97153 9.26879 4.4207
1021 1 1 9.02363 10.4444 4.03177
1025 1 1 12.5993 10.9591 5.10004
1029 1 1 12.6113 7.66772 1.81279
1033 1 1 13.7552 9.51354 3.92564
1037 1 1 16.5834 11.1982 3.27858
1002 1 1 0.100734 12.5001 4.55148
1041 1 1 18.0798 11.603 4.79975
1006 1 1 3.27071 10.2026 1.78795
1045 1 1 2.24479 11.4908 2.41878
1049 1 1 4.79275 10.5824 2.66307
1010 1 1 5.11773 9.6378 2.48839
1053 1 1 5.00192 11.8233 5.88275
1014 1 1 7.05599 10.8955 3.45908
1018 1 1 8.61573 10.2195 5.00933
1057 1 1 9.39489 10.7457 6.97172
1061 1 1 8.76083 11.3469 2.22335
1022 1 1 7.3891 11.6027 4.13615
1065 1 1 10.1503 10.7432 4.32264
1026 1 1 12.336 8.43661 2.68247
1030 1 1 14.8738 10.5053 3.73787
1069 1 1 12.9703 11.716 3.21997
1073 1 1 15.363 9.13918 4.28471
1034 1 1 14.5951 10.8646 2.70054
1077 1 1 16.0963 12.3511 3.00463
1038 1 1 17.416 10.2727 2.83027
1042 1 1 17.8818 13.2097 3.17915
1046 1 1 4.17621 12.9143 2.76057
1050 1 1 3.15204 12.1733 2.9181