ITEM: TIMESTEP
3200
ITEM: NUMBER OF ATOMS
8000
ITEM: BOX BOUNDS pp pp pp
0.0000000000000000e+00 1.8820720577620570e+01
0.0000000000000000e+00 1.8820720577620570e+01
0.0000000000000000e+00 3.7641441155241139e+01
ITEM: ATOMS id mass type x y z
917 1 1 18.7502 1.52896 0.957352
7524 1 1 1.43723 0.731804 1.68675
319 1 1 2.4497 0.488317 1.49636
770 1 1 4.65241 0.28397 0.439972
7215 1 1 3.62657 0.739852 0.863323
6 1 1 4.47155 0.773896 1.51069
7644 1 1 6.23335 0.960012 0.533933
7339 1 1 6.12032 0.904704 1.57681
7620 1 1 7.40862 0.348461 0.328299
343 1 1 7.3355 1.5342 0.535268
416 1 1 8.37504 0.766133 0.624652
937 1 1 8.9344 1.27906 1.62459
780 1 1 9.99026 18.6928 0.714308
15 1 1 9.74022 1.23874 0.219589
7661 1 1 8.97444 18.6261 1.36675
7667 1 1 9.88157 1.59059 1.32385
785 1 1 12.1772 18.4961 1.66446
346 1 1 10.5793 18.6473 1.98604
22 1 1 11.6385 0.702468 1.05511
7619 1 1 12.3582 0.239781 0.523082
746 1 1 13.38 0.602387 1.0931
7665 1 1 13.2025 1.05354 0.0128505
7601 1 1 16.5388 0.770394 0.651716
77 1 1 17.6452 0.720442 37.2149
7992 1 1 17.2603 1.04563 1.34382
356 1 1 18.1627 0.528666 1.12943
761 1 1 0.371382 2.40911 37.5352
7608 1 1 1.09275 1.95981 0.650722
408 1 1 2.63187 3.42222 36.5811
7631 1 1 3.63269 2.04566 0.756877
89 1 1 5.05542 2.84125 2.00007
857 1 1 4.55396 1.88192 1.62792
849 1 1 3.05852 2.07831 1.91578
935 1 1 5.40266 2.29128 37.0005
533 1 1 7.35606 2.43824 0.115524
371 1 1 6.1385 2.07162 1.60827
57 1 1 8.39609 1.42343 37.4319
7298 1 1 7.10886 3.13503 1.08329
55 1 1 8.18123 1.7727 1.01949
897 1 1 9.11674 2.24339 37.3241
1687 1 1 8.66151 3.42207 1.19315
838 1 1 10.4611 1.97137 2.27693
387 1 1 12.696 1.48126 0.81514
1270 1 1 11.5714 1.84819 0.751859
116 1 1 11.9738 1.66452 37.0304
65 1 1 13.7232 2.56001 0.502068
39 1 1 12.8923 2.17695 37.5044
431 1 1 15.0045 4.25588 0.732261
109 1 1 17.5938 1.68536 0.397724
7996 1 1 18.3357 1.57289 37.5026
430 1 1 18.2986 1.48467 1.95598
479 1 1 18.3772 3.05037 0.148567
841 1 1 0.945329 2.95203 0.95227
1289 1 1 2.70986 2.90745 1.22672
7678 1 1 2.30729 3.78483 0.617203
37 1 1 3.00452 3.16365 0.257705
885 1 1 4.21086 3.02468 1.00106
521 1 1 4.33957 4.2237 0.409699
900 1 1 5.31194 3.80121 0.0662568
455 1 1 6.65435 3.68618 1.9334
494 1 1 9.047 3.23946 37.4502
7657 1 1 6.76539 4.17128 0.579194
461 1 1 9.41309 2.38233 0.804093
28 1 1 11.1418 4.36787 0.210298
623 1 1 10.6615 3.69571 36.6726
505 1 1 11.9047 2.83257 0.829993
7746 1 1 14.2766 3.41188 37.2951
72 1 1 15.5532 5.30704 0.905865
7756 1 1 16.9574 4.65271 1.08573
7950 1 1 16.5377 3.96065 37.5563
73 1 1 16.7031 3.57605 1.10411
442 1 1 18.7272 4.11559 0.668784
127 1 1 18.5424 5.52653 36.8826
729 1 1 1.15887 4.66753 37.4097
7249 1 1 1.05639 4.05811 1.09902
7643 1 1 2.0651 5.99711 0.46367
933 1 1 3.31604 4.00075 0.981946
485 1 1 4.27087 6.34345 0.592806
7700 1 1 6.29945 5.00812 1.97385
209 1 1 5.32262 5.54527 1.1654
52 1 1 4.68921 5.33055 36.5839
7371 1 1 4.7861 5.27896 0.170585
497 1 1 6.33024 5.70461 1.11032
532 1 1 7.27797 5.14281 1.42303
575 1 1 8.45214 4.68383 0.202989
462 1 1 9.56456 5.53476 37.2039
537 1 1 9.56992 4.78398 0.514167
224 1 1 10.483 5.27822 0.819247
633 1 1 11.4578 5.80622 1.45217
146 1 1 12.5442 6.07273 0.99939
152 1 1 12.4658 4.90603 1.0118
476 1 1 13.628 5.66817 1.15927
7392 1 1 12.9665 5.03142 0.127679
80 1 1 14.9199 5.43368 37.0944
7236 1 1 16.6345 5.8015 1.50294
517 1 1 17.6223 4.01313 0.335551
554 1 1 16.317 6.98287 0.94631
7603 1 1 17.2956 5.73117 0.548413
520 1 1 17.8679 5.04605 0.0318611
7715 1 1 17.7721 5.4604 1.41633
88 1 1 1.22088 5.93922 0.918079
444 1 1 0.782025 6.91591 1.16304
999 1 1 18.3185 5.91527 0.552417
524 1 1 3.13497 6.71368 0.512572
440 1 1 2.76395 5.70118 1.35514
7239 1 1 0.967043 6.58713 0.104705
10 1 1 5.20558 6.77625 0.422359
445 1 1 6.32965 6.43824 0.347862
99 1 1 7.97442 6.71764 37.4583
534 1 1 7.88169 7.0462 36.479
7699 1 1 8.0107 5.95053 0.584334
7423 1 1 9.44767 4.78793 1.49561
502 1 1 11.1294 6.1263 0.34394
570 1 1 9.48842 5.86148 0.919073
7821 1 1 11.8297 6.90085 0.577793
989 1 1 13.5777 5.94771 0.137053
578 1 1 12.8706 7.14775 0.681435
7591 1 1 13.784 6.87779 37.4282
7798 1 1 13.3738 6.65842 1.50939
1000 1 1 14.4552 5.259 0.694974
7359 1 1 16.2698 6.9887 37.2753
1396 1 1 16.6484 7.95193 0.499785
559 1 1 17.3966 6.70975 1.43287
74 1 1 17.552 6.66056 0.0566123
195 1 1 18.6297 6.82593 37.4342
1329 1 1 18.612 7.75052 0.562793
44 1 1 2.12146 6.83736 37.5591
1409 1 1 2.16451 6.99951 0.916631
128 1 1 2.33724 9.48335 37.3565
92 1 1 3.46004 8.59196 37.6119
81 1 1 2.8076 9.06141 0.595514
446 1 1 6.5351 7.53566 0.499946
1369 1 1 4.02161 7.47578 0.615705
983 1 1 6.66038 7.91473 1.62283
95 1 1 8.37326 8.32692 37.018
607 1 1 10.0342 8.18769 1.7004
619 1 1 9.19757 8.18509 1.1378
7855 1 1 12.2688 7.6403 1.48808
1067 1 1 13.3638 7.67307 1.63651
7743 1 1 11.8514 7.94774 0.323305
186 1 1 13.4504 8.40559 0.528431
7800 1 1 14.519 6.19896 0.109565
552 1 1 14.3339 6.70258 1.15434
634 1 1 15.4729 6.26411 0.497843
549 1 1 15.454 7.79304 0.947692
78 1 1 15.3475 8.77845 0.244084
1314 1 1 17.5147 9.42143 1.82488
7395 1 1 16.6696 9.13396 0.453033
7641 1 1 18.1464 7.48491 1.50639
1323 1 1 1.6849 8.7699 0.0772205
7879 1 1 18.2778 8.74758 37.6426
239 1 1 1.6566 9.64844 0.523626
153 1 1 2.16855 7.87664 0.241139
1048 1 1 4.0922 9.22668 0.674991
197 1 1 3.12159 10.0273 0.646945
222 1 1 5.4556 9.22943 37.1267
138 1 1 7.10257 9.29393 1.26569
7774 1 1 6.21815 9.603 0.358144
1461 1 1 7.76089 8.81718 0.0497419
7772 1 1 8.76194 9.74584 0.752671
1109 1 1 9.29711 10.0322 37.1197
7751 1 1 10.0872 10.3258 0.594275
303 1 1 11.7846 9.66339 1.59177
665 1 1 11.5808 9.15231 0.659776
7432 1 1 12.49 8.91653 1.84425
265 1 1 13.2559 10.5248 36.4306
7466 1 1 12.712 9.85413 0.265237
230 1 1 15.2876 9.97032 0.801058
276 1 1 14.1427 9.0106 0.744563
557 1 1 17.2844 8.761 37.3547
4 1 1 17.2247 10.101 0.896192
636 1 1 15.8936 9.8525 1.77131
7758 1 1 17.6689 8.29085 0.535801
1450 1 1 1.00559 11.2487 0.905567
1521 1 1 0.674453 9.838 0.502192
598 1 1 2.90927 12.2715 0.128639
165 1 1 2.70158 11.4751 1.07082
1365 1 1 3.51606 10.8803 1.05342
7847 1 1 5.27172 10.1451 0.598208
7734 1 1 8.37014 10.5762 0.549315
536 1 1 8.89446 11.0195 1.46674
374 1 1 8.78684 11.6405 0.290166
976 1 1 10.4654 11.9456 1.42991
228 1 1 9.84905 11.3602 0.339106
1063 1 1 11.158 10.1782 0.269696
7912 1 1 11.0699 11.1344 0.867538
7428 1 1 12.7859 10.3977 1.17496
308 1 1 13.9327 9.98961 1.09208
235 1 1 14.9103 10.3681 1.83403
236 1 1 16.064 10.9131 1.09658
7875 1 1 14.4567 11.8681 0.397999
1389 1 1 16.3071 12.3052 1.95376
192 1 1 18.0416 10.4279 2.02675
7804 1 1 18.4207 10.3355 0.845326
962 1 1 18.518 11.9099 36.9136
281 1 1 17.9976 9.72541 37.4502
84 1 1 18.4499 9.3496 1.12548
1154 1 1 0.569672 12.6918 0.87554
7880 1 1 1.6254 12.3915 0.634874
365 1 1 3.78819 12.0325 1.1909
1089 1 1 4.6154 12.9516 1.9795
613 1 1 5.58731 11.7762 2.17813
7499 1 1 5.25417 11.7879 1.12658
7808 1 1 7.29978 11.7969 0.994867
687 1 1 6.01778 12.6417 0.92891
1098 1 1 6.38554 11.2623 1.35975
296 1 1 8.75708 12.2719 2.05522
660 1 1 9.97555 12.9849 0.973617
705 1 1 11.369 12.6634 1.18887
269 1 1 13.2961 12.1274 0.811991
7903 1 1 13.2072 13.8605 0.0887617
273 1 1 13.047 12.7508 37.5032
639 1 1 16.7365 12.1897 0.856851
1078 1 1 15.708 11.5909 0.23642
1040 1 1 17.3277 13.9195 0.587077
7525 1 1 18.4179 12.8636 37.3722
204 1 1 18.1126 14.171 1.50636
404 1 1 2.52343 14.6857 2.70323
7835 1 1 3.19776 13.0843 0.983143
643 1 1 3.47438 14.7666 0.244963
1010 1 1 5.56837 13.2906 1.81973
287 1 1 6.01251 14.9525 0.946146
567 1 1 6.12139 13.6029 37.223
342 1 1 6.9508 13.8176 0.464246
344 1 1 8.42518 13.1695 0.623638
1573 1 1 7.28891 14.2497 1.61967
697 1 1 10.0361 12.352 0.264413
602 1 1 9.93629 14.0231 0.529423
982 1 1 12.1141 14.0839 0.857317
379 1 1 12.9892 15.1667 37.4538
7834 1 1 13.4646 13.7338 1.42717
7440 1 1 14.2804 14.1077 0.329465
674 1 1 15.0754 13.5435 0.495087
7561 1 1 16.0171 14.6862 0.4463
7925 1 1 16.2985 13.4733 0.546
7844 1 1 16.8507 14.9594 1.00715
683 1 1 16.0615 13.9766 1.4109
7924 1 1 18.3477 12.7225 1.00543
397 1 1 18.1135 14.8903 0.457837
1125 1 1 1.08139 16.4022 0.329679
648 1 1 2.69023 16.6692 0.686337
7888 1 1 4.46749 14.0562 2.30129
700 1 1 7.03778 14.9372 0.907862
332 1 1 6.05049 16.8449 1.73388
7930 1 1 6.47428 15.8419 0.700512
7937 1 1 8.10793 14.6073 0.496268
743 1 1 9.0548 14.5571 0.254328
249 1 1 10.5091 14.287 37.0403
7858 1 1 10.1421 14.9743 0.388954
658 1 1 11.2535 14.9452 0.228318
7945 1 1 10.8554 15.5883 2.32103
666 1 1 13.9671 14.6541 1.26535
7551 1 1 14.9823 14.4099 1.07625
749 1 1 15.224 15.5777 0.372694
7991 1 1 14.2417 15.0877 0.266662
314 1 1 16.2499 15.6958 37.5719
328 1 1 17.8827 17.1883 1.01858
7040 1 1 17.3554 15.9261 0.471075
797 1 1 0.879828 16.5395 36.8287
732 1 1 3.15186 17.5193 37.2898
7650 1 1 0.909089 17.5179 -0.002976
721 1 1 4.24399 17.9083 1.01834
1128 1 1 3.72808 16.5831 0.871698
771 1 1 3.03544 17.057 1.55481
85 1 1 5.13942 16.9222 37.356
775 1 1 5.98245 17.4851 0.670713
1541 1 1 8.71095 16.7803 1.25062
7531 1 1 8.15823 17.1493 0.293443
698 1 1 8.86193 16.129 0.509763
655 1 1 10.4305 16.8241 1.24386
304 1 1 11.244 15.9876 1.09172
7983 1 1 10.4701 16.1513 0.431263
7994 1 1 12.1023 16.4577 0.900991
675 1 1 13.2796 16.1467 1.22221
306 1 1 14.3401 16.4351 0.971658
7188 1 1 13.1887 16.9788 0.561112
7547 1 1 15.0218 16.7636 37.6217
7990 1 1 13.082 17.0994 36.6346
7881 1 1 15.6767 15.9375 1.39711
7228 1 1 15.9787 17.5685 1.62591
351 1 1 16.8708 16.7108 37.6278
7635 1 1 0.0961435 17.2873 0.661242
7280 1 1 1.94165 18.4115 1.96198
7998 1 1 0.798772 18.0307 1.08208
731 1 1 3.15236 18.7718 0.126439
7972 1 1 2.21138 17.5886 1.20761
448 1 1 3.24135 17.6863 0.698193
7971 1 1 4.07694 18.0677 2.10875
363 1 1 5.18408 18.0247 0.367866
726 1 1 5.41074 0.173925 1.16806
60 1 1 6.46813 18.7842 0.91757
7539 1 1 7.51951 18.5097 1.33893
419 1 1 8.39321 17.7999 1.24942
67 1 1 8.92422 18.2392 0.253623
382 1 1 9.80489 17.8516 1.58855
829 1 1 10.3715 18.525 37.4264
742 1 1 10.307 17.2411 37.3983
7938 1 1 10.7725 18.0059 0.648119
6836 1 1 12.0304 18.2609 36.0561
31 1 1 12.4312 17.7503 0.120012
7948 1 1 11.5327 17.2475 0.68762
7997 1 1 13.3646 18.5938 0.343211
7622 1 1 14.9691 17.8489 1.05914
352 1 1 15.3285 18.7774 0.0498669
7515 1 1 15.9055 18.5881 0.869155
395 1 1 16.083 16.7812 0.892456
7552 1 1 17.2153 18.7805 0.870445
752 1 1 17.8701 18.5029 1.71783
157 1 1 0.699009 18.4192 1.95291
40 1 1 2.12769 0.458899 2.5111
321 1 1 1.86984 1.25026 0.860824
1208 1 1 2.77984 1.20715 2.12157
41 1 1 4.29835 0.821131 2.53564
764 1 1 3.79716 18.7327 1.40621
1168 1 1 4.84793 18.7764 2.14466
774 1 1 6.07729 18.572 2.05219
385 1 1 6.99467 0.788061 2.39992
850 1 1 7.95434 1.05011 3.07094
7626 1 1 9.74864 0.83814 2.29074
422 1 1 10.859 0.301744 2.74548
824 1 1 12.5249 0.825644 1.61512
818 1 1 11.2309 17.9675 2.86248
1143 1 1 14.0339 2.38287 2.51254
784 1 1 13.9333 1.48838 2.06804
389 1 1 14.3742 0.308712 2.71944
798 1 1 15.3241 18.283 2.27346
1106 1 1 15.992 1.39469 1.79739
1272 1 1 14.9105 1.50639 1.7094
115 1 1 17.2838 1.68412 2.24643
835 1 1 0.0632188 0.392403 1.78766
33 1 1 18.6226 18.3454 1.12509
833 1 1 17.8911 0.646984 2.47381
324 1 1 0.711696 2.01244 2.16755
35 1 1 18.7667 2.01222 3.24955
362 1 1 2.27118 3.24261 2.73474
47 1 1 3.49636 1.75051 2.80671
491 1 1 3.81619 2.74801 3.24066
7616 1 1 5.7551 1.78639 2.76327
765 1 1 8.12827 2.37537 1.85297
7219 1 1 7.20092 1.93542 1.75125
93 1 1 7.99772 2.48547 3.15777
7698 1 1 8.31297 3.67541 2.80356
908 1 1 9.04214 2.46271 2.15102
470 1 1 10.4182 2.39816 3.32618
473 1 1 10.4612 2.47336 1.26889
869 1 1 11.542 2.25313 2.04341
876 1 1 12.4001 2.73262 2.84197
30 1 1 13.1129 3.2081 1.14429
511 1 1 13.921 1.44038 0.68804
32 1 1 14.3175 2.65556 1.46778
787 1 1 15.4926 1.37315 2.64275
478 1 1 17.3797 2.5968 1.79492
514 1 1 16.2273 3.18411 1.86326
1675 1 1 18.5323 2.49083 2.32531
82 1 1 0.64805 4.48883 2.17353
899 1 1 1.05566 3.37693 2.66255
87 1 1 2.11978 4.80531 1.26759
488 1 1 2.41232 4.27482 3.4823
449 1 1 3.4025 4.80197 2.8933
475 1 1 2.47543 3.8975 1.83764
889 1 1 3.75789 2.81366 2.03931
454 1 1 3.66909 3.97402 2.27571
376 1 1 5.28881 3.9512 1.29502
504 1 1 6.40423 2.97857 2.87611
14 1 1 7.78688 3.77951 1.69822
500 1 1 10.5682 3.01505 2.19713
139 1 1 11.4495 3.34058 1.85416
460 1 1 11.2774 4.41129 2.18591
556 1 1 12.2264 3.97705 1.36166
7636 1 1 13.3438 4.10479 1.60861
34 1 1 13.6858 3.35465 2.40219
506 1 1 14.2571 3.70801 1.40739
113 1 1 15.1929 3.87801 2.28942
786 1 1 16.0218 4.2946 3.19998
480 1 1 17.8608 3.29192 2.46967
155 1 1 18.3849 3.08616 1.60659
1232 1 1 18.0024 2.15715 1.11689
1751 1 1 18.126 2.72087 3.45794
523 1 1 1.06104 5.53569 2.03862
441 1 1 1.97639 6.15782 2.91612
1290 1 1 3.14548 4.78539 1.62355
1337 1 1 4.13786 5.14319 2.38592
1254 1 1 6.39757 5.75511 2.9325
102 1 1 8.39776 4.95981 1.25
945 1 1 7.95686 4.84541 2.249
1295 1 1 7.65257 5.42913 3.1814
7611 1 1 9.63053 3.40518 0.641963
814 1 1 9.62336 3.27717 1.83298
217 1 1 10.3466 4.94702 1.86399
909 1 1 11.473 5.41594 2.48571
978 1 1 10.6253 4.00074 1.30617
538 1 1 12.0632 4.76452 3.21989
150 1 1 12.2202 4.77394 1.98205
134 1 1 12.2374 5.7859 3.0102
420 1 1 12.9041 4.09584 3.42688
68 1 1 13.7262 4.37485 2.83417
471 1 1 14.0574 4.91272 1.92069
944 1 1 12.9596 5.52393 2.18443
7986 1 1 15.0592 5.27987 2.28233
594 1 1 15.1392 5.82878 3.19252
550 1 1 16.0629 5.42232 2.46915
519 1 1 18.5632 5.13045 2.89362
1315 1 1 18.3732 4.48313 1.88493
522 1 1 0.214346 6.44771 2.99057
1285 1 1 0.011714 5.39285 1.37876
7718 1 1 1.84673 7.44395 3.73263
922 1 1 1.23953 6.48905 2.03191
637 1 1 2.91396 6.31647 2.20512
886 1 1 3.52421 7.20849 1.46106
90 1 1 4.66198 7.28363 2.75989
53 1 1 5.67555 6.96772 2.05707
171 1 1 6.77855 6.56279 1.40696
1334 1 1 5.79613 6.82078 3.29444
1774 1 1 5.98722 5.97993 2.02481
530 1 1 8.03391 7.44693 0.82846
91 1 1 8.95182 6.91227 0.898053
616 1 1 9.21632 5.92476 2.50147
177 1 1 11.2388 7.36377 2.07584
973 1 1 10.4917 6.01275 2.39415
579 1 1 10.9796 6.89563 1.22452
551 1 1 12.0316 6.52526 1.89355
1036 1 1 12.5741 7.01737 2.73639
231 1 1 13.6553 6.33676 2.63857
546 1 1 14.6408 6.73034 3.43704
196 1 1 15.6958 6.23767 1.6927
979 1 1 15.0052 7.06716 2.30611
881 1 1 16.0826 6.80578 2.74511
1360 1 1 17.011 7.38771 2.15878
808 1 1 18.2315 6.50018 2.02016
1038 1 1 18.227 7.52962 2.60689
481 1 1 0.540628 7.26067 2.19519
1806 1 1 1.12359 7.96199 0.648087
1488 1 1 1.27426 8.14123 2.16644
131 1 1 2.73553 7.98781 1.23258
645 1 1 4.63034 8.52441 3.02173
1045 1 1 3.82873 7.8607 2.62593
611 1 1 6.19927 7.95255 3.05407
1401 1 1 4.87737 7.59674 1.66859
1339 1 1 6.63403 7.06371 2.51875
1019 1 1 7.55525 8.27973 2.35375
647 1 1 8.02588 8.51284 1.49145
1327 1 1 9.51429 6.98972 1.82199
498 1 1 10.1041 7.47658 2.64903
140 1 1 11.4943 8.37332 1.62674
1023 1 1 13.1734 8.04719 2.97469
1429 1 1 14.0944 7.58104 2.62606
7714 1 1 15.6043 7.90565 2.56984
958 1 1 15.9205 8.75971 1.38934
563 1 1 16.4601 7.85198 1.47349
200 1 1 18.2072 8.38095 1.9847
191 1 1 0.287571 7.99776 1.44956
124 1 1 0.590739 8.89796 0.907413
241 1 1 1.42878 9.40736 2.1706
564 1 1 2.6755 10.2022 2.57672
7684 1 1 2.26364 8.84664 1.6858
1366 1 1 4.29506 10.1903 1.52888
1287 1 1 4.15776 9.67302 2.65583
164 1 1 5.90409 8.6889 2.05554
357 1 1 5.07941 9.38689 2.45976
7841 1 1 4.112 8.27835 1.29222
215 1 1 5.82146 9.92462 1.547
566 1 1 6.72333 8.78003 2.65492
890 1 1 8.45462 8.71387 3.24389
178 1 1 8.72796 8.07717 2.12306
1417 1 1 8.35465 9.77784 1.65903
142 1 1 9.58331 9.835 2.13037
1105 1 1 10.5015 9.3102 0.962878
7748 1 1 11.024 8.26148 2.68958
7827 1 1 11.6435 9.07655 2.5884
626 1 1 14.7744 8.36267 1.50984
188 1 1 13.644 8.76869 2.12347
916 1 1 13.4021 9.27275 3.219
568 1 1 0.192724 9.07415 2.01116
202 1 1 1.64314 10.3944 1.37397
1053 1 1 3.44012 9.61233 1.70951
233 1 1 3.47915 10.7575 2.41651
1003 1 1 4.96182 10.5513 2.41893
925 1 1 6.10126 10.7089 2.39557
1061 1 1 6.9339 10.0219 2.20211
1420 1 1 7.46098 10.371 1.13203
7817 1 1 6.66758 13.4542 1.35878
615 1 1 7.39418 11.2436 2.25092
333 1 1 9.90158 11.4501 2.41148
7862 1 1 9.21999 10.7402 3.02458
7780 1 1 10.7389 10.6818 1.98022
624 1 1 10.6018 10.769 2.91627
257 1 1 12.2393 11.5234 1.38935
1076 1 1 13.6988 9.7773 2.19183
614 1 1 12.1709 11.3787 2.43756
261 1 1 13.2282 11.3372 2.6814
600 1 1 13.8448 10.9378 1.76066
2238 1 1 17.0138 11.1981 2.21434
240 1 1 18.0234 10.1016 3.35448
270 1 1 0.0122363 11.9135 1.56532
7921 1 1 2.14333 13.6116 1.22447
242 1 1 1.0805 10.436 2.4114
7928 1 1 2.98719 11.7391 2.64829
968 1 1 0.568002 12.3609 3.03153
358 1 1 4.60418 11.1476 1.51452
288 1 1 4.26942 11.9998 2.26486
7843 1 1 5.91031 11.8055 3.09043
337 1 1 5.55728 12.9339 3.49339
1532 1 1 7.008 12.2463 2.37753
574 1 1 6.77288 12.9306 3.5357
216 1 1 8.47376 10.8311 2.37987
691 1 1 8.13172 13.6408 2.037
16 1 1 8.45717 12.8958 2.86859
256 1 1 9.40283 12.3518 2.8045
259 1 1 10.5592 12.6846 2.22621
694 1 1 10.9775 11.7355 2.33182
254 1 1 12.4339 12.5006 2.44672
1069 1 1 12.7307 12.9304 1.0759
592 1 1 14.2616 12.9641 0.30123
1074 1 1 13.4405 12.6515 2.17519
271 1 1 14.4625 13.2662 1.57908
7840 1 1 15.4047 12.4104 0.755682
7838 1 1 15.2747 11.6389 2.69489
1035 1 1 16.9756 13.1501 1.25012
677 1 1 17.7864 12.2114 1.96201
1001 1 1 18.1574 10.9848 2.88715
720 1 1 17.1876 12.0761 2.83401
7442 1 1 1.30783 14.5358 1.33318
758 1 1 18.0142 13.4199 2.46497
7964 1 1 0.116711 12.9543 1.89173
7482 1 1 3.19674 13.3146 2.77002
685 1 1 3.20928 14.6679 1.23434
1529 1 1 4.40924 14.7386 0.724215
1081 1 1 5.30553 13.9446 3.02124
696 1 1 6.33594 14.4018 1.76144
7975 1 1 7.74432 15.4718 2.97841
740 1 1 7.88889 14.5518 2.55375
7856 1 1 8.0941 13.6875 3.58852
341 1 1 10.1207 14.9085 3.32286
213 1 1 9.1953 13.1267 1.88191
7864 1 1 8.95138 14.0346 1.19059
1908 1 1 11.1316 14.1028 2.51576
229 1 1 11.4739 13.3789 1.88677
7829 1 1 13.1293 13.7485 2.44119
747 1 1 14.2141 13.7008 2.62166
277 1 1 13.1709 12.8498 3.09944
317 1 1 12.5649 15.3683 3.23922
278 1 1 16.1775 14.1395 2.78828
7480 1 1 15.2527 13.5463 2.28296
1474 1 1 17.1696 15.2949 2.50949
724 1 1 0.983629 14.3105 3.67491
7920 1 1 16.8946 14.4178 1.90723
769 1 1 0.169448 13.9107 2.81109
282 1 1 0.755954 14.8243 2.61279
325 1 1 1.87422 15.351 1.69692
243 1 1 3.54039 14.8792 2.17787
1136 1 1 4.57318 15.187 2.334
1526 1 1 2.95717 15.804 1.39565
411 1 1 6.72661 15.0866 2.41241
373 1 1 8.07242 15.9603 1.78017
1145 1 1 8.87721 15.1605 1.07661
7214 1 1 8.45694 16.2228 3.20166
7543 1 1 10.1082 14.0844 2.23778
1533 1 1 11.2209 16.5262 2.41071
736 1 1 9.85169 15.3709 1.51218
662 1 1 12.4667 14.3294 1.91367
1151 1 1 12.124 15.493 1.838
699 1 1 13.1712 15.1774 2.01405
670 1 1 14.8591 15.9268 2.38698
1153 1 1 14.4077 14.8472 2.19258
7870 1 1 17.0863 16.0603 3.15615
590 1 1 15.6855 14.9034 2.07259
1199 1 1 0.286818 15.0184 1.61697
394 1 1 17.8749 16.231 2.40946
7887 1 1 1.00678 15.8761 1.6737
399 1 1 0.620901 16.8288 2.44163
1198 1 1 1.94663 16.2858 1.29857
330 1 1 2.61877 15.9036 2.43601
812 1 1 4.4129 16.5594 1.67474
370 1 1 5.23276 15.8006 0.777082
7573 1 1 5.3057 16.1727 1.97859
7610 1 1 4.60397 16.8868 0.604652
29 1 1 6.89542 17.7839 2.30291
777 1 1 5.57269 17.0825 2.63143
690 1 1 7.68138 16.9526 1.41364
381 1 1 9.32137 16.2598 2.62156
1114 1 1 9.90944 17.0613 3.24093
701 1 1 8.9669 16.5172 3.92977
1142 1 1 12.2874 16.7481 1.92607
7913 1 1 13.2782 16.9553 2.72267
7125 1 1 15.1788 16.9752 2.27606
709 1 1 15.796 17.5863 3.05667
1158 1 1 17.7729 15.0908 1.56465
837 1 1 17.157 17.1283 1.90987
766 1 1 0.130135 17.3611 1.67215
12 1 1 1.16439 17.0109 1.36187
436 1 1 2.27776 18.0801 3.07101
7651 1 1 2.45719 17.0526 2.3311
336 1 1 3.63778 17.8921 3.11672
5 1 1 3.0749 18.061 1.72435
1301 1 1 5.35237 17.9593 1.47998
27 1 1 7.23564 18.8031 2.98487
779 1 1 8.03942 18.1838 2.88648
820 1 1 10.0477 16.9858 2.21224
7628 1 1 9.00524 17.3239 2.79152
7627 1 1 10.2506 18.1966 2.87816
316 1 1 10.9701 17.6481 1.74044
64 1 1 12.607 17.6802 1.14043
7478 1 1 13.5229 0.471646 2.20778
7872 1 1 14.2088 17.7248 2.31736
7155 1 1 16.3457 18.3345 2.43188
1110 1 1 16.3693 0.314942 1.56678
364 1 1 16.9133 18.0575 1.58241
753 1 1 18.1017 17.4153 2.11519
1954 1 1 0.863519 18.271 3.26473
843 1 1 3.6155 18.4376 4.17207
853 1 1 2.44135 1.19742 3.6365
292 1 1 4.03716 0.557385 3.71316
1932 1 1 3.5614 0.10605 2.75203
1260 1 1 3.42903 0.77037 4.48742
772 1 1 5.17623 0.362361 3.49463
452 1 1 5.82875 1.36405 3.71944
861 1 1 6.01693 0.560007 2.76228
734 1 1 6.74785 1.13596 4.69776
17 1 1 7.02616 0.964736 3.51776
1180 1 1 7.89128 0.869393 4.53404
410 1 1 8.47266 18.7284 4.21001
906 1 1 10.0215 1.14794 3.6658
1138 1 1 10.9814 18.8016 4.12236
7984 1 1 12.1172 18.5147 2.77231
26 1 1 13.7704 1.12579 3.0596
792 1 1 13.4262 0.125534 5.07888
949 1 1 14.7344 1.01161 3.63827
433 1 1 15.7534 0.336311 2.87379
702 1 1 15.2101 0.514774 4.45507
800 1 1 16.6571 18.1094 3.38229
1640 1 1 16.1859 0.583376 4.0128
794 1 1 17.6771 0.384382 3.49428
1160 1 1 0.581783 0.557467 3.1204
1670 1 1 16.8827 1.44216 3.1941
1644 1 1 1.11545 2.25514 3.27248
1637 1 1 0.262932 3.90246 3.28435
913 1 1 1.60409 2.80186 1.98406
1201 1 1 2.36393 1.93872 2.849
802 1 1 3.0742 2.24069 3.87857
1250 1 1 4.74906 1.59002 3.00997
1130 1 1 6.87541 1.92473 2.87799
863 1 1 7.94652 1.78046 3.88462
854 1 1 8.89398 1.49865 3.16021
810 1 1 8.82703 2.21587 4.58392
71 1 1 11.2978 1.27431 3.15395
1345 1 1 9.75766 2.45685 4.63203
7632 1 1 12.8976 0.467105 3.38228
1377 1 1 11.6761 2.80175 4.43523
7779 1 1 11.198 1.028 2.07562
151 1 1 13.7828 2.22274 3.56252
1597 1 1 13.3243 3.11505 3.33128
465 1 1 12.9286 2.50754 4.05846
1713 1 1 15.1241 2.68901 2.43676
910 1 1 15.0441 2.39171 3.52011
1265 1 1 16.0652 2.65258 4.41835
2432 1 1 16.0137 2.23018 3.40626
2197 1 1 17.0887 2.51436 4.17142
2029 1 1 17.7835 0.707682 4.50143
852 1 1 1.72068 4.68524 2.28027
883 1 1 1.26134 4.79601 3.56649
1241 1 1 0.811946 5.83851 3.48929
450 1 1 1.12911 3.95583 4.23845
7697 1 1 4.56686 3.6561 2.47403
1210 1 1 4.78461 2.26016 3.77402
1206 1 1 2.69691 3.2855 3.99823
7607 1 1 5.58069 2.87516 4.00885
1299 1 1 6.25009 3.89526 4.19697
1181 1 1 7.39068 3.48521 3.12749
104 1 1 6.54104 4.3706 3.35069
7 1 1 10.1997 3.64628 3.38187
971 1 1 11.2837 3.35618 2.96515
588 1 1 12.212 4.3248 4.61038
862 1 1 11.6341 2.36534 3.44258
427 1 1 12.1445 3.41168 3.79812
1196 1 1 14.7563 3.4612 3.15642
558 1 1 15.3591 4.01089 4.08505
474 1 1 15.7693 3.26666 3.24849
112 1 1 16.8929 2.97046 3.12373
603 1 1 0.599791 5.09069 4.69362
1673 1 1 2.2019 5.33243 3.65823
959 1 1 1.10747 6.70771 3.80862
887 1 1 2.91589 5.13461 4.55802
98 1 1 3.89572 5.57681 3.68212
1280 1 1 3.66732 4.00199 3.99611
767 1 1 5.19013 4.49097 3.35148
1340 1 1 7.71356 4.38509 3.34178
1739 1 1 8.64367 4.98716 3.18889
1310 1 1 8.80526 4.11253 1.96081
938 1 1 10.5435 4.96338 3.24734
1385 1 1 10.5742 3.03066 4.43611
1714 1 1 12.0785 5.84619 4.03793
1194 1 1 14.1208 5.47395 2.7844
912 1 1 14.0871 3.79407 3.7102
7754 1 1 13.9843 4.83168 3.91632
515 1 1 15.0975 4.8835 3.38408
156 1 1 15.721 4.96943 4.52166
1316 1 1 16.3518 5.1653 3.5687
1033 1 1 15.8045 5.97322 4.10857
120 1 1 17.4393 4.00688 3.72473
1685 1 1 18.6171 3.98453 4.22251
486 1 1 18.4217 6.18762 4.8117
966 1 1 2.83587 6.93982 4.84352
884 1 1 1.41146 7.12131 4.80347
848 1 1 3.56874 6.24355 4.4577
1769 1 1 4.08361 6.37781 2.95271
1780 1 1 5.05859 6.94684 4.91981
1373 1 1 5.20297 5.53694 2.71636
975 1 1 5.80422 7.71577 4.08402
1296 1 1 6.37813 6.6136 4.13162
1026 1 1 8.60801 6.52087 3.12311
1331 1 1 7.62392 6.55457 4.24462
1413 1 1 9.15517 6.01608 3.85288
555 1 1 10.1997 7.21203 3.84204
1374 1 1 9.79735 6.59448 3.00981
1066 1 1 11.1144 6.06624 4.04673
553 1 1 9.32089 4.99447 3.92567
7712 1 1 11.5109 6.45801 2.884
509 1 1 13.0655 5.88455 4.54576
1350 1 1 13.4512 6.90222 4.22494
995 1 1 13.8892 6.04199 3.6956
870 1 1 15.5352 7.84288 4.86567
193 1 1 15.8029 7.07492 3.67995
593 1 1 16.997 6.49419 3.39292
1443 1 1 17.0316 6.29332 2.42796
560 1 1 17.5657 6.80129 4.39724
483 1 1 18.5431 5.55943 3.91814
7721 1 1 0.128062 7.47331 3.73729
489 1 1 2.73747 7.96742 3.12304
531 1 1 2.39323 9.25672 2.73254
1414 1 1 2.09649 8.15163 4.62305
46 1 1 3.80576 7.69475 4.25431
1330 1 1 3.07884 8.65497 3.77359
1041 1 1 4.37305 9.37039 3.78993
936 1 1 4.82463 7.87018 3.97751
580 1 1 5.7036 8.82168 4.26631
180 1 1 6.75022 8.082 4.08873
1302 1 1 7.32694 6.50894 3.08459
7850 1 1 8.07358 7.77171 3.76954
865 1 1 6.89768 7.20762 4.79656
1017 1 1 9.43181 8.59437 2.8082
1308 1 1 8.95946 7.38774 2.99261
628 1 1 10.8032 8.06953 4.072
606 1 1 12.0903 7.77442 3.35142
108 1 1 14.4372 7.79364 3.549
1020 1 1 11.4286 7.19536 4.05739
1425 1 1 11.7056 7.61777 5.01205
942 1 1 12.5231 6.55267 5.0524
1037 1 1 14.5524 8.68358 2.5579
1441 1 1 14.4221 7.24634 4.54221
960 1 1 16.9185 7.62271 3.44798
1353 1 1 15.4708 8.08871 3.86829
2357 1 1 16.659 8.47175 2.41882
997 1 1 17.9931 9.13906 3.177
1757 1 1 17.9296 7.9877 3.526
1802 1 1 1.24913 8.35804 3.24723
315 1 1 0.182689 9.79497 4.67084
1034 1 1 0.611745 9.36557 3.79515
1442 1 1 0.242079 8.26215 2.73182
1322 1 1 1.38273 8.92333 4.32295
1724 1 1 1.86549 10.1285 4.08378
1085 1 1 6.20729 9.41726 3.26951
130 1 1 7.51158 9.24091 3.6278
539 1 1 7.90358 8.77295 4.79078
653 1 1 8.12869 9.77542 2.76029
649 1 1 9.48039 8.20288 3.73569
587 1 1 8.893 10.0897 4.16082
586 1 1 10.1446 8.9693 4.21
232 1 1 9.3028 9.5422 3.36441
136 1 1 10.8718 9.04458 3.37774
1031 1 1 12.4651 9.62012 3.31334
1065 1 1 11.1492 10.1914 4.03632
1057 1 1 11.7602 8.85291 3.93154
1073 1 1 13.2381 9.93317 4.22042
591 1 1 14.26 9.05423 3.92025
914 1 1 15.0556 9.75792 3.89872
1395 1 1 15.6295 8.84954 2.96053
7397 1 1 16.8182 10.0764 2.09987
961 1 1 18.1636 10.4852 4.59748
1405 1 1 1.37178 9.67536 3.14742
1403 1 1 0.770618 10.4705 3.80474
1410 1 1 2.34153 11.1858 3.23068
1484 1 1 2.10749 12.3656 2.68755
1282 1 1 4.39617 11.0814 3.02026
1820 1 1 3.70949 9.72207 4.54208
1002 1 1 5.28897 10.7804 3.48763
1050 1 1 6.47966 10.5286 3.34437
1415 1 1 4.97633 11.7409 3.82199
932 1 1 6.49294 11.1343 4.59334
1091 1 1 6.14095 12.2981 5.57931
610 1 1 7.5521 10.8094 3.16432
1102 1 1 8.24633 11.9342 3.36149
1135 1 1 8.4279 10.9395 3.85268
1822 1 1 10.4952 10.6621 4.78076
622 1 1 11.1913 11.4905 3.25507
993 1 1 14.4443 9.76563 2.85654
1430 1 1 13.6086 10.8777 4.07151
1538 1 1 13.6095 10.5181 3.14112
1072 1 1 14.6754 11.1375 3.461
2234 1 1 15.5514 10.4682 2.83362
1825 1 1 16.0757 11.1471 3.55381
311 1 1 16.4044 9.99275 3.19511
608 1 1 16.8621 11.8415 3.83417
1475 1 1 17.0591 10.8939 3.33552
757 1 1 0.376747 11.7078 5.5221
1005 1 1 1.38182 11.5114 2.76481
597 1 1 18.4386 12.4938 4.48931
1444 1 1 3.44806 12.3468 3.30621
1406 1 1 0.83363 12.0889 4.38655
246 1 1 3.37999 11.1052 3.43079
1008 1 1 4.33773 12.8408 4.04565
659 1 1 7.25662 11.8935 3.44877
604 1 1 6.19111 12.1315 4.01565
661 1 1 7.50637 11.2144 4.16035
1104 1 1 7.1098 12.1164 4.83627
621 1 1 8.9353 13.0254 3.79679
1182 1 1 9.99305 13.236 4.12628
1983 1 1 8.99381 12.2753 4.85733
1509 1 1 11.5329 12.4654 3.15386
211 1 1 9.74095 11.6524 3.51558
7784 1 1 11.8861 12.7744 4.43427
663 1 1 12.593 11.9789 3.52976
667 1 1 13.4634 12.2379 4.28363
1437 1 1 14.3527 11.982 1.52081
669 1 1 14.2698 11.6298 4.26142
1042 1 1 15.9442 12.9911 3.09002
1030 1 1 16.7419 13.1234 3.76055
1149 1 1 18.4305 12.2087 2.78047
1368 1 1 18.7235 11.5639 4.01499
1880 1 1 17.4293 12.9749 4.91823
1007 1 1 1.61193 12.9122 4.59585
755 1 1 0.927501 13.1366 3.87447
1163 1 1 2.21733 13.0182 3.66514
686 1 1 4.72511 12.8917 2.96753
7900 1 1 5.82865 14.7667 3.52041
1047 1 1 7.18028 13.7068 4.21831
7541 1 1 7.91528 12.6593 4.34771
627 1 1 7.12868 14.5452 3.37557
2343 1 1 9.30715 14.0833 2.93242
225 1 1 10.115 13.2028 2.93863
1537 1 1 10.6863 13.9814 3.98625
1108 1 1 12.2545 14.4557 3.67236
630 1 1 12.8491 13.2585 4.02317
1070 1 1 12.6236 13.5534 5.02687
715 1 1 13.9911 13.2805 4.0196
305 1 1 14.4275 14.4073 3.2904
1183 1 1 15.4526 15.6442 4.06239
629 1 1 15.5523 14.2058 3.61423
678 1 1 16.6315 14.3452 4.10816
1004 1 1 17.0122 13.0258 2.39793
1046 1 1 17.3042 14.3297 3.00396
682 1 1 1.191 15.5694 3.45874
280 1 1 18.4904 15.3685 3.21427
727 1 1 1.30296 13.8302 2.86814
1514 1 1 2.08418 14.2345 3.62002
816 1 1 1.49674 14.8261 4.52217
773 1 1 3.49068 15.6518 3.39842
1131 1 1 3.19952 14.6286 3.45819
1217 1 1 4.58001 16.4967 2.74642
1453 1 1 4.16129 15.0307 3.81587
1530 1 1 6.11896 16.1551 3.1506
1133 1 1 5.05829 15.489 4.64261
286 1 1 6.82699 15.5526 3.29647
1531 1 1 7.97101 15.5325 3.94125
1170 1 1 9.08543 15.229 3.58984
737 1 1 10.7911 16.59 5.04019
1192 1 1 10.9579 17.0731 3.49255
668 1 1 13.4695 15.985 2.70495
1506 1 1 11.1667 15.8435 3.34239
1059 1 1 13.6555 14.5386 4.0243
672 1 1 13.2485 14.639 3.02067
1427 1 1 14.2379 15.4653 3.05542
1147 1 1 14.7519 16.6763 3.13256
234 1 1 15.9708 16.0945 3.3452
1596 1 1 15.2802 15.011 3.00139
310 1 1 16.5454 15.1875 3.29472
759 1 1 16.9457 16.6729 4.63923
2037 1 1 17.8606 14.598 3.85534
1561 1 1 18.7579 14.2933 4.27772
791 1 1 18.1877 14.67 2.41491
873 1 1 1.44447 16.3964 2.72761
1195 1 1 0.0990825 16.4514 4.36289
1233 1 1 1.56636 16.2075 4.16695
1566 1 1 2.04728 17.0733 3.41791
1172 1 1 3.47815 16.4724 2.87436
1129 1 1 2.42628 15.3302 3.36279
340 1 1 5.20434 17.4476 4.04641
1134 1 1 3.6327 17.2208 3.95085
7615 1 1 5.91901 16.1973 4.62273
605 1 1 6.91067 16.4805 2.26665
19 1 1 8.15289 17.0976 2.29278
260 1 1 7.90353 17.3837 3.48499
1064 1 1 8.81103 15.5757 4.55652
783 1 1 9.95814 17.137 4.73511
1176 1 1 9.9777 15.9375 4.2015
1472 1 1 12.7151 16.0323 4.49404
1226 1 1 12.2869 16.3185 2.94533
353 1 1 14.6337 16.4712 4.8053
716 1 1 15.3922 16.5578 4.01183
7923 1 1 14.8518 17.4992 4.43066
745 1 1 14.7857 17.9162 3.28521
437 1 1 17.0363 16.938 3.58825
312 1 1 17.9683 16.8633 3.17415
1999 1 1 18.2598 15.39 4.32747
443 1 1 0.175346 16.2398 3.19949
412 1 1 2.56142 0.00169242 3.88345
1251 1 1 3.05673 17.7645 4.68486
487 1 1 4.65176 17.4092 2.87239
815 1 1 4.47052 18.2927 3.64969
855 1 1 5.90805 18.3206 3.63334
1140 1 1 5.30604 18.2601 2.82004
7901 1 1 6.79122 17.2702 3.14469
704 1 1 7.43975 18.3058 3.98896
1178 1 1 7.95791 0.684195 1.92665
417 1 1 9.51882 0.123297 3.02016
468 1 1 9.09512 17.8366 3.66352
1213 1 1 9.59485 0.00933298 4.23433
821 1 1 10.467 17.9123 4.03892
1186 1 1 10.7103 17.689 5.03951
11 1 1 13.3247 18.4949 3.76044
1107 1 1 12.0103 17.2796 3.12582