ITEM: TIMESTEP
4800
ITEM: NUMBER OF ATOMS
8000
ITEM: BOX BOUNDS pp pp pp
0.0000000000000000e+00 1.8820720577620570e+01
0.0000000000000000e+00 1.8820720577620570e+01
0.0000000000000000e+00 3.7641441155241139e+01
ITEM: ATOMS id mass type x y z
7998 1 1 4.29556 1.23067 36.7325
38 1 1 4.7452 1.9639 1.59609
764 1 1 7.87233 1.44172 2.64305
292 1 1 7.63013 17.1774 1.50222
6 1 1 5.822 1.02761 3.07267
7339 1 1 9.39714 3.44051 37.1535
7287 1 1 8.60697 1.31871 0.813551
7620 1 1 8.82202 0.302208 0.483722
7667 1 1 10.1923 18.0294 0.899304
346 1 1 10.0616 17.0828 1.65573
421 1 1 10.227 2.09425 0.212148
22 1 1 12.8113 0.0718328 1.46599
7938 1 1 12.6119 0.593266 37.5263
501 1 1 13.1469 2.02353 0.719305
7188 1 1 15.8598 18.684 37.3811
7987 1 1 15.5189 1.54857 0.44579
1272 1 1 15.1563 18.0195 1.30046
1713 1 1 16.396 18.2956 0.583533
79 1 1 15.9836 18.4786 1.53157
105 1 1 17.2277 18.4366 1.2751
835 1 1 1.08026 0.0149387 1.74507
366 1 1 0.462447 1.54288 36.4548
7560 1 1 16.9684 0.343198 0.568897
917 1 1 2.84535 0.807063 0.906723
7601 1 1 17.4738 2.11371 2.07993
841 1 1 4.66351 1.09505 0.296893
1232 1 1 4.4027 2.26866 36.0558
155 1 1 3.61956 18.1863 1.39125
849 1 1 5.02793 1.76496 34.4729
933 1 1 5.33471 1.52274 36.0946
324 1 1 2.84929 4.1058 0.499521
1201 1 1 3.94021 1.55386 1.92367
493 1 1 5.55969 2.65591 0.641942
7644 1 1 7.1466 3.97634 0.374552
7253 1 1 4.25381 4.65098 0.842056
1178 1 1 8.58226 1.02564 37.1768
7624 1 1 9.98758 0.638183 36.9718
461 1 1 11.579 3.59545 0.0609992
781 1 1 11.4809 2.76325 1.56766
145 1 1 11.9832 2.44664 36.001
65 1 1 14.3756 3.55387 0.486655
874 1 1 13.2741 3.41043 2.55796
7989 1 1 15.2187 2.01196 1.53348
7674 1 1 15.3198 3.97552 37.1965
7552 1 1 15.5386 3.73646 2.46901
787 1 1 13.8691 0.599682 36.8079
73 1 1 16.2124 1.06989 37.1465
833 1 1 0.641841 0.908563 0.188835
1675 1 1 1.06811 1.26 1.50526
761 1 1 1.77772 3.51448 37.1889
87 1 1 4.17725 2.12271 0.0678558
7680 1 1 3.4908 1.24237 35.7503
475 1 1 2.04705 3.16969 0.618648
7371 1 1 4.94085 2.92567 37.0999
6925 1 1 5.20935 1.89925 37.5573
7539 1 1 6.0233 2.7901 37.2871
945 1 1 8.73831 4.64072 37.0018
496 1 1 7.58954 2.25551 1.76328
416 1 1 8.52566 1.87256 1.83001
7699 1 1 8.24646 4.47094 0.584806
1739 1 1 7.99221 3.67409 36.8026
1687 1 1 10.2936 3.53579 3.15828
102 1 1 11.6114 3.62469 36.5873
15 1 1 11.9297 5.4072 37.5149
7611 1 1 12.4588 2.99265 35.2507
28 1 1 11.1017 4.50914 1.42247
7708 1 1 14.9241 2.37084 0.422396
934 1 1 11.783 4.80229 0.658875
508 1 1 13.4566 3.4573 0.948497
30 1 1 14.1866 4.23576 37.2975
506 1 1 14.6231 3.9461 36.0722
471 1 1 16.4635 3.00958 36.8456
583 1 1 16.1796 1.95477 37.4859
72 1 1 18.6992 5.80027 34.7279
34 1 1 17.8253 1.2618 1.09053
7986 1 1 17.2243 4.5502 35.9642
478 1 1 0.443473 5.33344 1.42484
442 1 1 0.211042 5.05341 0.477308
520 1 1 1.98296 3.40384 1.66741
7351 1 1 0.179025 2.58903 36.8424
362 1 1 2.95737 5.42151 0.851537
1337 1 1 8.11478 4.72078 1.94974
7700 1 1 8.76962 3.06203 1.33589
209 1 1 3.12799 3.04273 0.408304
6931 1 1 7.29453 6.65044 0.0284308
533 1 1 9.78827 4.64919 37.5302
633 1 1 9.21563 4.14903 1.14779
616 1 1 12.2832 3.83398 2.52632
537 1 1 10.8969 5.61348 0.469631
581 1 1 11.3776 5.42342 2.11862
623 1 1 11.3201 6.60852 1.84827
556 1 1 14.6325 7.19476 1.41457
146 1 1 13.8849 7.05242 36.4544
150 1 1 14.274 4.6296 35.5165
1000 1 1 14.0541 6.05334 36.6881
546 1 1 15.9132 3.44687 0.205817
1194 1 1 17.0475 5.32244 1.499
7603 1 1 17.7392 4.80705 0.13553
68 1 1 15.195 7.68325 0.0265037
7239 1 1 1.81945 8.17774 0.200028
634 1 1 0.0558961 6.1055 36.7083
481 1 1 0.168828 5.30207 2.35533
7249 1 1 1.21824 6.76587 0.870061
440 1 1 2.12303 6.97207 0.620331
1290 1 1 3.95506 3.58548 37.4322
7366 1 1 4.91472 9.06599 37.0659
94 1 1 7.10132 4.87156 2.28733
7803 1 1 7.16085 8.71853 37.0218
497 1 1 9.409 5.92007 1.91197
1310 1 1 8.79288 5.49719 1.02344
59 1 1 9.04269 7.72183 37.3066
1026 1 1 8.09135 6.1056 0.592121
177 1 1 9.22319 7.38782 0.904865
538 1 1 12.1124 7.90514 1.23914
579 1 1 13.2484 6.37947 0.354185
476 1 1 15.9257 6.93399 0.541806
7796 1 1 13.8158 5.52898 37.5127
552 1 1 12.9208 6.14886 1.80004
1037 1 1 16.4672 6.7478 1.47562
1360 1 1 18.1721 5.8295 1.02851
999 1 1 17.6754 8.42282 37.3892
550 1 1 17.5403 6.48085 36.2214
979 1 1 16.3113 6.36803 36.8854
241 1 1 1.33759 8.98006 2.79521
6867 1 1 0.00640921 8.66082 2.847
1409 1 1 1.95793 6.0863 2.37024
886 1 1 3.92045 5.65477 0.402864
7841 1 1 2.11076 9.77249 0.497092
852 1 1 3.71271 7.13488 0.836809
569 1 1 3.78963 10.12 36.6379
983 1 1 4.4373 10.0954 2.53268
1461 1 1 4.51943 6.43802 1.01642
52 1 1 7.77174 7.5754 37.4085
7377 1 1 8.33709 8.58375 2.17977
7748 1 1 7.61238 8.64979 0.870934
930 1 1 6.24176 6.00429 37.0734
7751 1 1 10.7983 6.23677 34.1588
1327 1 1 8.23786 6.24679 1.56776
91 1 1 11.4918 9.03826 1.02699
1478 1 1 12.3871 8.92636 1.59074
7071 1 1 12.7848 8.94396 37.0985
186 1 1 13.4744 10.5029 37.4223
626 1 1 17.0849 8.74581 0.784987
444 1 1 15.6544 10.1986 0.276966
1038 1 1 16.7415 7.95907 37.3092
563 1 1 16.2046 7.42721 36.5628
195 1 1 16.8359 9.22526 37.0532
7924 1 1 0.932783 10.1844 0.301143
1369 1 1 3.38543 7.93643 0.326474
124 1 1 0.94001 8.7545 36.4255
164 1 1 2.46001 8.75683 0.740177
7854 1 1 3.15158 9.69514 1.06184
7847 1 1 4.94917 11.8235 37.6281
1366 1 1 5.21197 7.39926 1.09143
653 1 1 6.77274 7.93622 0.421224
175 1 1 5.94679 12.2736 0.813263
647 1 1 5.91924 9.13085 37.3556
7734 1 1 6.88594 9.32986 0.68769
1105 1 1 9.40866 9.89959 0.0681289
618 1 1 8.45055 9.55794 0.758085
1067 1 1 9.0017 10.7921 37.0317
7432 1 1 11.1936 7.85937 0.147061
1023 1 1 16.2676 10.26 36.849
993 1 1 12.5943 11.0648 0.894771
78 1 1 15.0159 9.97842 2.58465
636 1 1 16.2952 9.29042 0.385307
200 1 1 16.5578 11.8729 0.462905
1072 1 1 15.9389 8.29515 0.407845
559 1 1 17.064 13.137 1.95229
45 1 1 0.444997 7.60194 3.32093
609 1 1 1.45357 14.1439 1.01016
642 1 1 17.5268 10.8622 2.70706
6569 1 1 0.522719 11.1167 1.81421
197 1 1 1.62691 10.5969 1.548
206 1 1 2.13321 10.8865 0.417386
970 1 1 7.36256 11.2674 1.5702
290 1 1 6.43341 12.6375 1.76196
7822 1 1 7.50881 10.1082 1.18964
7935 1 1 7.56198 12.0334 37.169
7808 1 1 11.2434 10.9163 0.987434
1420 1 1 8.64238 11.0255 1.48187
7334 1 1 7.56956 11.2426 0.189514
228 1 1 9.57319 8.29585 1.10047
142 1 1 10.1267 11.0495 0.922537
227 1 1 12.669 12.0622 2.5234
638 1 1 12.1557 10.2506 1.48094
1073 1 1 13.988 12.6319 2.70583
276 1 1 15.3166 10.4223 1.69547
270 1 1 18.179 12.4069 36.1445
7322 1 1 18.7195 12.8171 1.76776
393 1 1 18.7309 10.8035 2.71447
7880 1 1 0.458052 14.1699 0.432572
1852 1 1 1.10349 12.1801 2.31045
7835 1 1 2.01673 14.2063 2.81389
7921 1 1 1.14109 13.1498 0.357001
293 1 1 1.25831 16.0601 3.37437
201 1 1 2.59489 11.1958 1.68245
7499 1 1 6.8696 12.8716 37.6118
1173 1 1 3.51153 13.2633 0.549736
1089 1 1 8.02782 12.3873 2.81221
342 1 1 6.40191 11.5951 1.51736
1148 1 1 7.11736 11.9752 0.741706
1508 1 1 9.07881 12.0284 0.146093
1102 1 1 8.61956 12.9024 0.827301
257 1 1 12.002 10.7142 35.1035
256 1 1 11.7297 12.0644 0.42767
273 1 1 14.216 13.9892 1.79043
592 1 1 13.329 12.9806 36.2408
7480 1 1 15.3762 12.1103 1.57647
7395 1 1 16.3044 11.1674 1.72041
4 1 1 17.846 12.16 0.960242
1074 1 1 14.4931 10.8724 1.36472
7838 1 1 13.612 15.076 3.04643
7791 1 1 16.337 13.0533 3.36407
165 1 1 18.7842 12.5792 35.3297
7925 1 1 17.1786 15.9521 36.5903
1199 1 1 17.6038 15.4424 37.3854
7968 1 1 0.509768 15.0344 1.50501
1154 1 1 1.9832 15.5851 36.3978
7849 1 1 1.61286 11.8501 37.5489
404 1 1 1.87979 13.6814 1.78756
1529 1 1 3.74267 15.6031 1.44015
7614 1 1 4.04951 0.00524063 2.85518
7180 1 1 5.41089 13.7878 2.08576
7937 1 1 7.33843 13.2837 36.1345
1136 1 1 4.167 12.5185 0.282755
296 1 1 6.99852 13.2714 1.05725
7503 1 1 5.87189 14.9228 2.07199
229 1 1 7.79962 13.7931 1.10358
7864 1 1 8.14024 11.9267 1.05998
602 1 1 11.9489 11.0405 0.0324467
7508 1 1 12.6333 14.6263 2.37123
7942 1 1 13.5586 13.4281 37.1371
683 1 1 15.107 13.1373 1.23983
7551 1 1 15.4169 15.938 2.28029
7840 1 1 15.5168 13.1841 0.349864
236 1 1 16.3665 17.651 35.4284
1078 1 1 17.5733 14.0762 0.280533
758 1 1 18.6373 16.4132 37.4294
397 1 1 3.30038 16.8413 0.844224
194 1 1 0.358733 15.9129 0.753514
648 1 1 1.61968 14.222 37.3048
7964 1 1 0.869492 15.7795 37.1728
7086 1 1 3.4671 15.7857 0.503048
207 1 1 5.42195 18.3865 3.02632
1145 1 1 6.95174 14.5211 2.52799
249 1 1 8.77171 15.5356 0.199034
51 1 1 7.64357 14.7657 1.00404
7516 1 1 11.3571 12.9337 37.5022
7858 1 1 13.0183 14.2615 0.222933
7829 1 1 11.7364 14.4316 1.93053
736 1 1 11.2018 13.7488 3.02779
7437 1 1 13.633 16.8138 0.345803
7903 1 1 15.7049 13.2229 36.2375
204 1 1 16.8439 15.4956 0.849736
7622 1 1 16.2375 12.883 37.1129
791 1 1 1.42417 15.8444 1.62133
7926 1 1 1.87109 17.0066 1.62454
7755 1 1 1.43798 13.6641 35.8729
318 1 1 2.66049 17.7673 1.63577
7972 1 1 3.86112 16.4057 2.14891
7523 1 1 1.38148 16.5802 36.5723
319 1 1 2.19162 0.0342314 1.06167
370 1 1 4.75947 17.8565 3.60971
696 1 1 4.39715 0.0822795 1.89156
367 1 1 5.36322 17.9739 0.293974
7930 1 1 4.9985 15.8529 0.626578
411 1 1 8.16282 15.5166 3.61133
775 1 1 6.77251 0.244301 1.30851
381 1 1 8.44883 17.1669 2.07981
7983 1 1 10.8234 13.9833 0.661624
13 1 1 8.86246 16.3441 36.8928
377 1 1 9.83011 18.0678 1.92351
31 1 1 10.3742 15.8471 2.08909
658 1 1 13.0689 17.8726 0.862523
7994 1 1 12.0657 16.2259 1.82289
662 1 1 13.7563 15.8146 1.93169
1142 1 1 16.0276 0.621242 0.892447
668 1 1 11.4879 18.079 36.9403
306 1 1 15.8092 15.3608 1.40955
670 1 1 16.9154 16.6868 0.763139
7520 1 1 16.2253 17.1042 37.6182
7638 1 1 16.1899 17.525 1.11159
7040 1 1 15.0882 17.1337 2.68239
33 1 1 17.8247 16.4295 1.46264
6724 1 1 0.00426376 0.338357 37.1745
7919 1 1 0.274271 18.6061 0.341657
7996 1 1 2.15768 1.35065 2.05316
797 1 1 2.30801 18.2582 36.1277
834 1 1 17.6793 16.6255 37.2237
7122 1 1 2.20628 1.18753 37.4517
771 1 1 1.09655 17.8116 36.7811
332 1 1 5.85594 0.657475 0.719934
726 1 1 7.48803 0.713204 1.76904
60 1 1 6.8058 1.66059 2.36714
141 1 1 7.77929 0.245991 37.2986
375 1 1 12.8593 0.509486 2.45003
7990 1 1 14.7125 0.67258 1.48188
7146 1 1 11.7556 17.0189 3.11613
7549 1 1 14.7694 0.0272953 0.231113
390 1 1 13.6996 0.158778 0.0419206
352 1 1 13.2473 16.9384 36.5819
7913 1 1 11.9953 18.2066 1.44881
7593 1 1 17.0812 0.088807 36.063
754 1 1 14.9981 18.7564 2.20993
1198 1 1 18.4227 18.4575 1.50026
398 1 1 0.688126 17.9668 1.33612
430 1 1 18.4521 2.54282 2.56613
1158 1 1 0.0776355 0.304239 2.31622
336 1 1 3.29118 2.03343 2.56533
1239 1 1 3.004 3.30044 1.75298
7280 1 1 4.86523 3.73201 0.33015
1650 1 1 4.13832 18.7195 3.83643
7631 1 1 6.24924 1.8513 0.174136
5 1 1 6.76085 2.66753 0.685632
41 1 1 7.82962 2.75986 2.55193
7646 1 1 8.14048 2.38503 0.821469
419 1 1 8.38845 18.6282 1.49213
1250 1 1 11.2836 18.7939 2.11666
779 1 1 12.2291 3.52418 0.924263
1270 1 1 11.7444 1.05163 1.08137
422 1 1 13.1178 1.30824 2.88476
139 1 1 12.9952 1.30938 4.04053
7150 1 1 9.35239 2.14961 3.81161
746 1 1 16.2834 1.60907 1.18842
824 1 1 13.1212 4.4308 2.85923
784 1 1 16.0962 1.45817 2.26891
7478 1 1 15.0035 0.651023 3.61242
7228 1 1 16.8445 2.87053 3.93695
1106 1 1 1.45011 0.38046 3.83251
364 1 1 17.7404 1.31804 3.68061
356 1 1 17.6346 3.38383 1.45392
1238 1 1 16.441 2.45202 2.31104
7992 1 1 1.32925 0.663536 2.53334
7678 1 1 5.21661 1.94983 2.49444
1160 1 1 2.11924 2.15382 0.985763
2134 1 1 2.65132 3.09145 2.82149
491 1 1 1.75606 2.42516 2.77267
7685 1 1 4.63887 4.90007 1.90524
6856 1 1 6.46466 2.29153 1.61439
1168 1 1 6.79215 3.1067 2.23369
814 1 1 9.54587 1.22096 1.46912
55 1 1 11.0742 1.88836 35.9327
385 1 1 10.4551 3.38502 37.4155
908 1 1 14.6366 5.15687 1.08619
7779 1 1 12.919 1.07248 1.71844
7997 1 1 12.7346 3.38847 3.49304
505 1 1 12.9486 5.04163 1.39246
32 1 1 13.5561 4.34353 4.11125
1670 1 1 15.485 2.72413 2.66688
1196 1 1 12.9713 2.23893 1.93319
7589 1 1 16.9772 1.3339 0.318811
2033 1 1 17.0863 18.4484 2.19725
109 1 1 1.11918 1.99244 37.2
115 1 1 17.6159 2.55055 3.24738
1640 1 1 16.6043 3.66409 2.0191
82 1 1 17.9001 2.67941 4.66362
321 1 1 2.5983 2.32328 1.86883
913 1 1 2.74342 3.14607 36.9352
1280 1 1 2.99898 4.03737 2.668
885 1 1 5.05477 3.99045 2.49352
455 1 1 6.01455 3.61496 0.836052
7219 1 1 7.37151 5.3304 3.58219
1295 1 1 9.70376 3.37969 0.536777
7423 1 1 8.29255 2.95826 37.4801
7 1 1 9.80744 3.05681 1.47256
473 1 1 11.7563 2.48469 5.20602
511 1 1 10.2757 1.72252 3.15565
149 1 1 12.1502 1.97969 1.49888
387 1 1 12.7926 2.87507 4.86608
113 1 1 15.9911 2.93307 1.44054
420 1 1 14.0152 2.81631 1.53586
7636 1 1 17.0682 2.50259 1.0508
1316 1 1 17.381 4.31388 0.937333
786 1 1 17.1116 3.54071 0.108544
474 1 1 18.1662 5.68428 37.3771
2432 1 1 18.6293 3.89759 0.589777
2029 1 1 18.0912 1.30772 2.58104
1315 1 1 17.4602 3.85887 2.77742
1319 1 1 0.932079 2.37866 1.72129
98 1 1 3.01416 4.99284 2.82064
806 1 1 2.19632 5.46279 37.379
1336 1 1 6.0469 4.37352 2.88411
1776 1 1 3.92212 5.56979 1.50596
1373 1 1 7.4579 5.08622 0.768526
7698 1 1 8.30103 3.93645 2.6444
7762 1 1 7.43456 6.77708 1.98998
376 1 1 9.15284 4.47346 2.21273
224 1 1 11.1241 3.77613 2.3818
460 1 1 11.2794 2.35557 3.37315
1374 1 1 10.6514 4.48324 4.06692
978 1 1 13.6701 4.61665 0.435007
862 1 1 13.02 5.4825 2.83346
7754 1 1 15.6496 5.32516 1.30558
954 1 1 13.7299 5.2723 2.03009
2197 1 1 16.3157 4.53043 1.22729
514 1 1 14.5545 3.29893 2.31807
1359 1 1 15.18 5.89474 2.28855
7715 1 1 1.45017 4.0171 2.43086
1751 1 1 18.0467 4.85432 1.88361
7756 1 1 0.452187 4.23703 1.67716
522 1 1 18.7484 6.29499 2.0335
7643 1 1 2.30467 4.64012 2.13554
449 1 1 2.4945 8.03096 3.44777
1330 1 1 2.70438 4.86483 3.93452
637 1 1 3.86346 6.48976 2.00787
566 1 1 2.85734 6.39694 1.96318
527 1 1 5.82382 3.97734 1.89913
138 1 1 6.49005 7.15507 1.44725
2103 1 1 8.74856 5.77133 2.71161
446 1 1 9.55059 6.18995 3.46956
171 1 1 10.1324 4.70137 1.83728
1019 1 1 9.70595 7.81798 3.09433
909 1 1 10.6395 6.10651 2.6762
973 1 1 9.94066 6.657 1.45031
1668 1 1 12.0911 4.68389 2.03272
995 1 1 14.4279 9.1879 36.0218
1273 1 1 12.7339 5.54387 0.424539
7714 1 1 14.9008 6.73053 3.32019
193 1 1 15.211 8.06713 1.06291
554 1 1 15.409 6.39447 1.17905
519 1 1 17.371 7.32541 0.357203
1637 1 1 16.3882 5.7778 2.36563
808 1 1 2.36889 6.8545 3.27084
568 1 1 0.721144 6.94669 2.42411
153 1 1 4.34711 7.87461 2.81078
1410 1 1 3.3848 7.71248 5.23976
1045 1 1 5.04416 5.71009 1.44416
445 1 1 3.15823 4.57122 1.6162
580 1 1 2.75804 7.52214 1.16656
53 1 1 6.77177 7.8299 3.29373
539 1 1 9.06138 7.74774 1.95559
555 1 1 9.72735 7.09492 2.35595
232 1 1 10.5647 8.5203 2.43633
140 1 1 11.0726 7.45374 2.22843
2094 1 1 11.8805 7.50973 3.94382
1036 1 1 12.9506 9.37109 2.41938
1350 1 1 17.368 9.00589 3.11026
591 1 1 11.3995 6.63056 0.545602
7798 1 1 15.3129 7.23136 2.52933
188 1 1 14.235 7.09672 0.057257
1473 1 1 16.48 7.93866 1.54823
7758 1 1 17.9038 8.75709 2.2308
1353 1 1 16.3651 9.31429 3.14195
441 1 1 18.2202 9.92527 2.73167
922 1 1 17.4391 6.42759 37.3705
959 1 1 18.2354 7.56969 1.87584
7806 1 1 2.5197 9.93845 1.92406
239 1 1 3.54962 6.67873 3.47931
1083 1 1 2.6361 9.34908 3.49718
6484 1 1 2.03414 10.5424 2.72323
81 1 1 1.65161 9.0333 1.76811
90 1 1 4.99221 8.79824 2.59204
573 1 1 4.34777 10.8888 3.10478
925 1 1 4.57344 12.9919 2.64423
215 1 1 4.44571 8.69068 0.337499
374 1 1 6.21529 8.61242 2.163
1098 1 1 9.46787 9.26673 1.7053
357 1 1 6.10589 9.47398 1.61606
890 1 1 8.70584 7.88208 2.98283
1417 1 1 8.3465 7.13135 0.609792
7772 1 1 10.3935 10.2807 1.82484
178 1 1 9.27482 10.2869 1.24731
1429 1 1 11.6689 8.56613 2.90259
7712 1 1 10.6695 9.39056 3.20736
948 1 1 12.7008 8.0888 2.31964
1422 1 1 10.5111 8.80509 1.34901
231 1 1 11.5216 8.34783 1.90322
1507 1 1 13.5287 10.4147 0.866027
997 1 1 18.8009 10.9037 4.27482
7397 1 1 17.0021 7.2601 2.39392
1314 1 1 1.12717 9.23707 0.821523
2357 1 1 0.330549 6.5189 3.29008
1802 1 1 0.644108 7.49457 5.06719
1521 1 1 1.34233 10.1267 4.09457
1001 1 1 1.0675 12.2048 5.06474
720 1 1 1.04081 8.90369 4.03913
2285 1 1 2.95274 10.5753 4.85143
564 1 1 3.0079 9.08178 2.55161
365 1 1 1.1138 10.6912 3.2259
7928 1 1 4.30861 11.8489 2.53442
1048 1 1 3.42007 9.22707 0.0735285
7843 1 1 6.0391 9.5105 2.65843
1411 1 1 3.82048 12.2044 4.10453
358 1 1 5.39563 10.9083 2.10099
7774 1 1 7.86802 9.71747 2.15252
1017 1 1 8.16319 12.6616 1.84331
7862 1 1 8.50692 10.6584 0.281417
694 1 1 10.2592 10.5152 2.99063
235 1 1 12.3941 11.1156 1.9686
7908 1 1 15.6292 10.9011 37.2012
1538 1 1 13.4369 11.841 1.50933
669 1 1 15.1553 11.2875 2.28022
1039 1 1 11.3865 10.4057 3.47167
7428 1 1 14.2216 12.0062 3.64511
1396 1 1 16.2396 10.3078 2.41347
7804 1 1 16.6166 12.2505 2.5696
7444 1 1 14.1329 11.65 2.42234
84 1 1 0.298785 10.0618 3.47656
125 1 1 1.01998 11.8113 3.51212
1450 1 1 2.47781 13.1455 3.17386
1484 1 1 18.7455 11.9053 2.3084
1005 1 1 1.66152 12.7465 4.02071
7403 1 1 2.81406 13.8546 4.10563
1365 1 1 0.711602 10.1038 2.16832
7482 1 1 2.32318 10.5395 4.00785
686 1 1 1.50595 14.9188 1.74182
613 1 1 4.09892 12.7613 5.23769
233 1 1 4.62227 12.0382 1.12248
691 1 1 6.96572 12.1367 2.43628
1573 1 1 9.89242 13.393 0.0177612
1135 1 1 8.98728 11.6627 2.64721
1509 1 1 9.7292 12.7175 0.954769
7811 1 1 10.9117 11.6721 1.65716
7780 1 1 12.7707 12.5589 37.2838
254 1 1 12.823 14.1945 3.46851
225 1 1 8.98013 13.5989 1.70395
261 1 1 12.2958 13.2049 0.590947
916 1 1 13.6421 11.0988 4.94102
1389 1 1 17.0107 14.0483 2.53803
2234 1 1 15.3138 12.6887 2.53499
192 1 1 17.9901 13.8348 36.9135
1046 1 1 17.5344 14.1033 3.45447
289 1 1 17.3458 11.96 4.20429
246 1 1 2.41369 13.6982 0.912123
7658 1 1 1.00363 14.0624 2.52665
243 1 1 3.70332 11.6744 1.64218
1282 1 1 2.21275 12.5261 0.823603
685 1 1 3.30344 13.0141 1.82589
687 1 1 6.18735 13.7865 3.40668
16 1 1 7.23135 16.4372 2.36427
7543 1 1 8.45267 14.8671 2.80223
213 1 1 9.09206 13.9817 3.20079
1908 1 1 9.07928 13.7397 0.570505
277 1 1 11.3007 13.1544 4.03373
2661 1 1 7.26559 13.3437 1.98636
269 1 1 14.0728 14.7721 4.35766
259 1 1 12.9818 14.0412 1.44799
7834 1 1 13.4093 13.6804 2.4454
1108 1 1 15.2474 14.1098 1.22877
629 1 1 16.2539 15.7425 4.34658
280 1 1 16.1334 13.1102 1.46724
727 1 1 2.47744 17.3363 3.69626
310 1 1 0.140822 15.9068 1.75
873 1 1 1.17273 15.224 0.476803
643 1 1 2.70946 15.5103 2.43474
248 1 1 2.87582 17.0379 2.40626
1453 1 1 4.24941 15.8485 2.97009
7455 1 1 4.85055 16.8197 2.3845
344 1 1 9.78772 15.3219 1.03875
304 1 1 9.77686 14.1846 1.15981
1506 1 1 10.1864 17.3305 2.98942
379 1 1 13.104 16.6327 1.62327
1151 1 1 12.6981 15.3598 3.45108
699 1 1 10.8056 12.6284 2.04493
64 1 1 14.0472 16.8528 1.73196
990 1 1 15.2831 14.9183 2.40343
7920 1 1 14.5398 14.9374 1.42061
7872 1 1 14.468 17.1983 3.55799
6719 1 1 15.8555 14.0879 2.22667
7561 1 1 18.603 16.8139 2.2005
590 1 1 18.2512 14.5986 2.19101
278 1 1 18.3658 14.9965 1.12382
282 1 1 0.695929 15.3482 2.48637
1997 1 1 17.3487 16.4557 2.4492
1526 1 1 2.3893 0.715603 4.45902
331 1 1 2.34779 16.3904 0.64335
7651 1 1 3.21197 0.291731 1.88439
1172 1 1 6.8913 15.9193 1.25975
487 1 1 5.85843 1.27177 2.05975
19 1 1 8.9595 16.415 3.57832
700 1 1 8.13946 15.4951 2.07991
7214 1 1 9.13676 17.876 37.5748
286 1 1 8.90614 16.893 0.803426
1533 1 1 10.6783 15.5831 0.588444
1192 1 1 12.9921 15.167 1.1243
837 1 1 14.1596 18.4748 0.977843
785 1 1 14.6456 17.1706 0.318482
7844 1 1 18.5392 17.052 0.892193
7870 1 1 16.8709 16.2001 1.58169
234 1 1 16.109 16.6045 3.04753
840 1 1 0.968668 16.9227 0.632868
399 1 1 1.20761 18.702 0.521217
412 1 1 0.96516 18.0263 2.23458
1558 1 1 18.714 17.3869 37.1559
1208 1 1 6.52602 0.688237 37.4692
1129 1 1 3.77262 1.22593 2.9973
1932 1 1 3.96552 2.79933 1.95735
340 1 1 6.60007 16.9381 1.64731
690 1 1 9.06082 15.9398 1.40631
1301 1 1 5.18547 16.8775 3.41809
7661 1 1 6.76117 17.4804 0.832645
829 1 1 10.4097 18.6226 2.75051
820 1 1 11.1587 17.7234 2.44745
9 1 1 10.5125 17.9308 3.91588
740 1 1 10.8673 18.7526 1.13965
7911 1 1 11.9488 1.03943 2.23207
316 1 1 13.0979 17.7291 2.89591
7948 1 1 12.5507 17.5549 37.4526
433 1 1 13.7652 0.40279 2.01188
753 1 1 18.0927 0.347514 0.537241
328 1 1 16.0879 17.6664 3.08389
1474 1 1 18.289 17.7447 2.34197
12 1 1 0.375553 18.8002 35.7112
40 1 1 17.8938 18.8176 2.78139
789 1 1 18.4823 0.592705 4.31939
802 1 1 3.01368 0.284666 3.09339
1122 1 1 4.2619 1.19484 3.81039
43 1 1 5.37841 3.08693 2.78264
7616 1 1 6.7838 2.11604 3.2911
857 1 1 7.54767 3.15017 4.09201
1541 1 1 8.1736 0.0278474 2.8202
29 1 1 8.18061 1.75626 5.82175
7627 1 1 7.75089 0.814918 4.06353
863 1 1 8.94203 1.60687 2.90509
27 1 1 7.88366 18.4769 3.7057
1130 1 1 10.8853 1.09698 1.61448
941 1 1 11.2459 0.338539 4.37701
869 1 1 9.93044 0.840303 3.77849
417 1 1 8.05072 2.1668 6.80016
26 1 1 12.833 1.70287 5.40436
821 1 1 11.8447 1.80923 4.06828
1540 1 1 12.8549 2.3057 3.87589
1187 1 1 14.8111 0.874863 2.62465
151 1 1 16.9889 0.529448 3.05703
1590 1 1 14.2611 18.6854 3.07029
1143 1 1 16.3111 1.65683 4.77296
766 1 1 15.1832 18.2504 3.75822
795 1 1 0.153073 18.1973 3.2144
899 1 1 0.881138 1.70994 2.78576
1638 1 1 3.01218 1.61312 3.97034
47 1 1 2.2399 2.28546 3.67522
1210 1 1 7.24797 0.390354 3.00136
503 1 1 4.23267 2.06846 3.1757
1216 1 1 3.75079 3.705 4.69229
888 1 1 1.78104 1.35709 4.20728
889 1 1 5.17557 0.354969 3.75824
7607 1 1 4.45058 3.12835 1.01254
7298 1 1 5.23303 1.95051 4.5932
504 1 1 10.0163 0.793773 2.34378
17 1 1 9.2539 2.35771 0.681502
937 1 1 8.33147 2.77357 3.45686
7626 1 1 10.5646 2.9371 3.94124
7619 1 1 12.1588 1.84124 2.85814
838 1 1 11.2943 2.28086 0.528412
500 1 1 10.5059 2.98427 2.14364
427 1 1 13.7412 2.14543 4.47706
465 1 1 14.9002 0.883491 5.22804
912 1 1 15.009 2.42327 4.95844
1223 1 1 15.9981 1.34358 3.26694
800 1 1 17.2365 0.653892 1.96247
112 1 1 18.2668 1.39908 4.92509
35 1 1 2.14632 0.0121918 2.54149
2071 1 1 16.219 4.70043 3.35102
1964 1 1 15.0335 3.15066 3.43644
1644 1 1 0.48644 5.3657 6.96308
488 1 1 1.93317 4.37428 1.18716
450 1 1 1.10825 2.74282 3.67989
884 1 1 18.1241 3.44099 3.60628
403 1 1 1.15996 3.60286 4.49535
1242 1 1 1.95771 4.28606 4.33871
767 1 1 3.12632 3.46765 3.71642
89 1 1 5.38002 2.7776 1.67615
1299 1 1 4.4322 6.13492 4.64982
1206 1 1 7.37541 4.18421 3.31814
2150 1 1 9.63684 4.26156 4.17566
217 1 1 9.77079 4.39116 3.14401
971 1 1 6.20781 1.88041 4.03474
470 1 1 13.2279 5.01865 5.02211
876 1 1 10.7757 4.80163 3.06267
1338 1 1 11.5484 3.51126 4.92124
1597 1 1 14.1984 4.09115 3.1779
495 1 1 14.1854 2.32825 2.88002
910 1 1 16.0266 3.89203 4.3192
515 1 1 14.3663 6.11592 1.68314
1265 1 1 15.051 3.45151 4.73165
156 1 1 14.9136 4.74169 2.21955
119 1 1 14.6442 4.23427 4.22799
1197 1 1 0.751949 4.46312 3.9964
1717 1 1 18.4201 3.70931 2.28176
603 1 1 1.8667 3.856 3.30558
848 1 1 1.6307 5.13126 2.72616
483 1 1 0.865077 3.11807 2.80322
7524 1 1 3.20795 6.01062 4.43057
887 1 1 5.56722 5.15781 2.16568
765 1 1 7.71675 3.21895 1.53308
14 1 1 7.4333 4.32184 4.92125
1181 1 1 7.61584 3.39899 5.18028
1769 1 1 6.72778 4.01933 4.1762
1331 1 1 8.14431 4.6864 4.17055
1308 1 1 9.25155 3.23078 2.7215
553 1 1 11.3217 1.83239 2.46372
938 1 1 10.5883 5.70553 1.61028
1413 1 1 12.2876 6.58541 3.71666
588 1 1 11.3344 4.00581 3.52433
1307 1 1 12.7801 5.38862 3.83287
2232 1 1 14.177 5.30182 3.38043
872 1 1 14.0451 6.3668 3.96694
1033 1 1 15.4518 9.17118 2.46901
801 1 1 15.9114 4.87923 2.34711
1237 1 1 0.142055 2.9613 1.41649
1759 1 1 16.2966 5.75299 3.8016
1318 1 1 17.3821 6.10024 2.15131
1442 1 1 1.47755 4.87529 5.05247
525 1 1 18.2377 4.53877 3.31696
523 1 1 1.04868 3.67494 0.914042
1334 1 1 2.87801 5.88653 3.46026
1774 1 1 3.96846 5.48342 3.90933
1781 1 1 5.58435 6.73364 2.11396
10 1 1 6.4747 5.55211 1.78953
611 1 1 8.49903 3.85704 3.73661
898 1 1 6.99096 6.17862 4.10138
1066 1 1 8.64544 4.85842 3.25782
1333 1 1 8.40408 5.75227 3.74168
147 1 1 11.901 5.51583 2.87908
1463 1 1 13.0965 6.71802 2.66192
509 1 1 15.2823 5.55006 3.35105
1438 1 1 14.0359 6.13439 2.75035
134 1 1 15.8487 7.30028 3.85677
1441 1 1 14.1423 7.30042 2.49087
1711 1 1 15.2601 7.57884 5.71414
1387 1 1 12.8267 7.50411 3.20544
2269 1 1 15.9842 6.49085 2.97
7641 1 1 0.277593 6.02003 0.144346
1443 1 1 17.9831 5.59997 2.74316
1488 1 1 18.0022 6.81443 2.64907
489 1 1 1.51303 6.34013 3.66883
131 1 1 2.42724 9.19562 5.69131
2177 1 1 5.31938 7.82849 2.70892
926 1 1 5.91206 8.49907 1.24235
1296 1 1 7.02006 6.82153 3.05513
1381 1 1 8.15363 6.77078 3.41079
1727 1 1 7.80437 7.5241 2.66935
130 1 1 7.65378 5.87756 2.60641
587 1 1 8.60168 6.74112 2.52629
2065 1 1 9.50244 9.78779 3.43988
498 1 1 11.8361 7.07084 2.77966
1714 1 1 14.0083 8.46935 2.79595
606 1 1 13.0085 9.71353 4.37855
2153 1 1 13.4335 7.27355 1.54354
1715 1 1 11.7715 7.28255 4.94432
593 1 1 13.0174 10.5002 3.76058
594 1 1 16.2737 7.71222 3.06562
7721 1 1 18.1279 7.8309 3.15795
960 1 1 15.2535 8.04232 4.66348
560 1 1 17.2408 5.53699 4.4152
242 1 1 1.66118 7.46526 3.84212
1034 1 1 18.5616 5.1868 5.10402
1322 1 1 3.34107 10.6925 7.09869
1405 1 1 1.79965 10.7307 5.16131
998 1 1 2.13473 9.68388 4.56361
1053 1 1 3.43831 8.72075 1.08701
1724 1 1 5.5564 9.04139 3.77099
1041 1 1 4.25047 7.60624 1.77291
1049 1 1 6.52477 9.87068 5.66504
1085 1 1 7.18012 8.26425 2.3237
536 1 1 6.95069 9.25847 2.57574
1061 1 1 8.21965 11.6571 5.39436
586 1 1 7.09729 10.1318 3.96378
7827 1 1 9.1917 8.94202 2.87054
1020 1 1 9.89815 9.6518 2.51399
985 1 1 10.8393 9.58348 4.87551
303 1 1 13.741 9.53285 3.11724
1395 1 1 12.8939 8.73957 3.50754
1480 1 1 12.2301 11.5773 5.43703
914 1 1 15.6915 10.8996 4.43816
311 1 1 18.0746 8.28504 4.3435
996 1 1 16.5467 9.34126 4.45302
1757 1 1 15.5905 9.36957 4.05111
1403 1 1 18.0565 9.54573 3.75515
882 1 1 17.1434 10.1654 5.4294
7368 1 1 18.5883 11.8066 4.44439
315 1 1 3.40614 10.4202 3.39478
7888 1 1 4.15303 13.3608 4.14966
531 1 1 3.38527 8.4302 4.14841
1163 1 1 3.00098 11.4168 3.28861
1532 1 1 7.03767 10.513 2.57439
1051 1 1 5.22632 7.86827 3.98042
1376 1 1 5.29923 12.4928 1.99661
1002 1 1 7.538 10.6643 5.35783
659 1 1 6.72161 11.6677 5.43066
7541 1 1 6.09548 11.1098 2.87529
1050 1 1 7.86856 11.1429 2.65672
615 1 1 9.56113 10.9277 2.05854
7912 1 1 12.2511 10.0736 37.5134
1790 1 1 11.0811 11.1775 2.59574
1430 1 1 11.3765 9.87072 2.34708
1718 1 1 12.4096 9.85929 3.36658
1512 1 1 12.5426 13.9108 5.54544
628 1 1 12.7493 13.0141 3.02383
2244 1 1 12.4609 13.0447 4.15429
967 1 1 15.9126 11.8985 3.44324
1080 1 1 14.1561 12.1478 5.64275
240 1 1 15.1955 12.4815 3.53526
1838 1 1 16.4835 11.1407 5.01398
2084 1 1 0.978756 11.2337 4.48659
1287 1 1 4.07025 10.6553 4.10348
288 1 1 1.9586 11.8805 2.90595
1012 1 1 2.02512 11.7534 4.11629
654 1 1 3.47137 11.4992 5.22962
1081 1 1 3.79374 14.1135 2.26353
627 1 1 5.15455 12.9811 3.524
621 1 1 7.15498 13.2722 3.41679
333 1 1 11.0032 12.6681 0.987158
1182 1 1 12.0118 12.1491 1.52618
614 1 1 11.9996 13.9712 4.47912
1111 1 1 10.4572 11.2077 3.74886
663 1 1 14.707 14.7677 3.36047
672 1 1 13.2196 12.6594 4.7758
600 1 1 13.5153 12.7009 3.7429
747 1 1 14.5527 13.6817 4.55095
1825 1 1 14.0296 13.862 3.44455
1475 1 1 18.259 11.4312 3.38563
1368 1 1 13.903 13.1346 1.38469
968 1 1 17.6603 12.4856 2.82568
1439 1 1 17.8297 13.6421 1.31802
755 1 1 1.14031 16.8194 2.26688
1156 1 1 1.9296 15.8155 4.96045
1449 1 1 3.38002 15.7822 4.30215
251 1 1 0.64987 12.7822 3.6298
339 1 1 3.12278 12.84 4.65062
7900 1 1 4.21626 14.4117 4.77357
1010 1 1 3.32127 14.7847 1.01541
7975 1 1 5.96882 14.8868 3.37731
1103 1 1 9.41928 12.5375 1.86069
1942 1 1 12.9656 12.7353 1.57358
1069 1 1 13.3597 13.4298 0.702265
305 1 1 12.4286 12.3186 6.32844
678 1 1 15.2305 16.1681 4.31562
608 1 1 14.7268 13.531 2.45905
1596 1 1 16.4796 12.4505 4.24231
2238 1 1 18.5211 13.636 4.73894
1149 1 1 18.3254 15.6633 2.43746
2037 1 1 15.2645 14.3974 4.16918
769 1 1 16.8236 15.0456 4.87948
1406 1 1 0.628338 15.3156 4.30088
1561 1 1 16.8792 15.7268 3.0375
724 1 1 1.2088 14.8435 3.28859
1954 1 1 0.399858 16.3464 3.00363
1550 1 1 2.52777 14.9647 3.48006
1487 1 1 0.948544 14.2105 4.31591
350 1 1 2.35694 16.2091 3.74516
325 1 1 3.99694 17.6252 2.36633
1128 1 1 2.8238 14.4901 2.09801
773 1 1 7.10693 15.6994 3.12452
1131 1 1 5.97914 17.0575 2.50304
7856 1 1 9.78174 17.2944 4.09368
1530 1 1 6.24345 14.4705 4.37983
253 1 1 6.41239 16.5418 3.30612
2343 1 1 7.84065 14.5538 3.79055
7945 1 1 10.3845 14.4706 2.55858
1070 1 1 8.71665 14.4706 1.23383
1170 1 1 10.3723 16.2865 3.46543
1939 1 1 10.1826 13.3899 2.52862
1226 1 1 11.1293 16.3876 2.51108
1501 1 1 10.5571 14.8612 1.4849
1100 1 1 10.772 13.8127 1.81167
317 1 1 11.3808 15.264 2.36934
1537 1 1 15.1882 15.9788 3.28938
1153 1 1 12.259 13.5119 2.15812
1427 1 1 17.4915 15.3267 1.70796
1469 1 1 15.6641 17.0226 3.93138
790 1 1 13.2065 16.8251 4.11541
435 1 1 17.2419 16.0842 4.21731
394 1 1 0.513306 17.3528 2.92052
1165 1 1 18.5333 15.8761 4.48668
7197 1 1 1.20542 17.5192 3.62598
1514 1 1 17.5187 18.0006 4.44787
1481 1 1 2.10109 17.7226 2.60408
7573 1 1 7.43834 16.1874 4.68314
2378 1 1 4.26064 16.4778 4.01637
605 1 1 8.86875 18.2251 4.00219
323 1 1 6.50119 0.532094 2.32185
1133 1 1 9.3318 14.6748 2.12863
260 1 1 8.28917 17.0544 4.43654
1886 1 1 9.871 15.5176 4.1351
698 1 1 11.5366 18.0108 3.46902
1114 1 1 12.0847 15.5867 4.99903
1107 1 1 14.5009 16.2643 2.58785
7515 1 1 16.3592 15.0067 2.27582
1157 1 1 12.7995 16.1168 5.601
1539 1 1 12.5607 17.48 4.69549
7125 1 1 15.83 17.5084 5.27456
437 1 1 16.8835 16.9752 3.80738
312 1 1 0.0515494 16.9045 6.35955
443 1 1 17.0477 18.2339 3.31286
157 1 1 16.9969 1.70627 2.94624
1233 1 1 16.8806 17.1879 1.69325
778 1 1 2.3575 1.53915 3.10831
843 1 1 3.23278 18.7607 4.96828
772 1 1 2.17686 16.7237 5.97994
1211 1 1 2.43145 18.3552 3.80018
777 1 1 4.70653 0.92589 2.73265
1134 1 1 7.34662 17.7556 4.23527
855 1 1 9.10486 0.422383 2.94784
7901 1 1 6.91455 18.0825 3.40051
7531 1 1 9.54115 15.3304 2.87547
410 1 1 9.84218 18.5823 3.69655
1708 1 1 10.5835 18.1606 4.92848
780 1 1 12.3377 18.4442 2.78949
11 1 1 12.4256 17.3432 3.79284
1906 1 1 11.8842 14.7423 3.21704
20 1 1 13.1423 0.433178 3.59931
1138 1 1 13.8909 1.79269 1.59025
7984 1 1 12.5968 18.3853 4.11874
823 1 1 14.1528 15.9571 4.23507
389 1 1 11.6985 18.1023 4.75933
798 1 1 13.6787 16.5529 3.14135
7155 1 1 13.9448 1.00919 3.32058
1110 1 1 15.8078 0.495975 4.25717
7887 1 1 17.3621 0.21812 4.00255
409 1 1 16.4722 17.8926 4.23063
1200 1 1 0.482043 0.819899 3.59839
1293 1 1 1.49899 1.69698 5.61072
846 1 1 0.495018 0.617397 5.99305
1600 1 1 4.07434 1.89197 5.03024
819 1 1 3.44761 0.560542 4.03555
1582 1 1 8.17017 1.7092 3.63769