ITEM: TIMESTEP
4100
ITEM: NUMBER OF ATOMS
8000
ITEM: BOX BOUNDS pp pp pp
0.0000000000000000e+00 1.8820720577620570e+01
0.0000000000000000e+00 1.8820720577620570e+01
0.0000000000000000e+00 3.7641441155241139e+01
ITEM: ATOMS id mass type x y z
7998 1 1 2.81845 0.412882 0.538174
38 1 1 3.83851 0.832117 0.811266
764 1 1 4.96908 0.25723 0.648421
292 1 1 5.32507 17.9713 1.2676
6 1 1 6.23579 0.0543776 0.894073
7339 1 1 7.482 1.01296 0.672354
7287 1 1 6.17966 1.21074 0.1213
7620 1 1 8.22497 0.316275 0.859305
7667 1 1 8.81213 0.826851 1.80037
346 1 1 9.49086 0.305724 1.18376
421 1 1 9.96686 1.03323 0.618698
22 1 1 11.1852 0.548462 0.84558
7938 1 1 11.075 1.4608 37.3252
501 1 1 12.0102 0.468089 0.0791742
7188 1 1 13.5205 0.553916 0.467886
7987 1 1 12.8926 1.26156 0.988291
1272 1 1 15.5537 0.0931467 0.205281
1713 1 1 14.5277 0.726103 1.17128
79 1 1 15.788 0.397939 2.04456
105 1 1 16.5905 0.371864 0.226978
835 1 1 0.661133 1.05748 1.33696
366 1 1 0.191026 1.47622 0.514689
7560 1 1 16.7842 1.06497 1.73641
917 1 1 1.30555 1.55213 0.648829
7601 1 1 18.6571 2.82107 0.661174
841 1 1 1.57416 1.51778 1.63039
1232 1 1 1.67845 2.51591 1.33442
155 1 1 2.45213 1.31498 0.726162
849 1 1 4.51208 2.57458 37.4638
933 1 1 3.35647 1.43892 37.5608
324 1 1 4.39357 2.02895 0.898113
1201 1 1 3.40259 1.7395 1.29789
493 1 1 5.61497 1.95057 0.901856
7644 1 1 7.20209 2.18312 0.869471
7253 1 1 6.21555 2.88193 1.68796
1178 1 1 8.7007 2.16901 37.5648
7624 1 1 8.73541 1.38126 0.683421
461 1 1 10.3076 2.08838 0.123292
781 1 1 10.7631 1.74286 1.16151
145 1 1 11.484 2.46648 0.608176
65 1 1 12.9338 2.38893 0.901083
874 1 1 12.0432 1.90818 1.35971
7989 1 1 13.9761 1.68244 1.0475
7674 1 1 14.8571 2.26905 0.978789
7552 1 1 16.0465 2.31557 1.17287
787 1 1 15.429 1.14908 0.3282
73 1 1 16.517 1.46724 0.50324
833 1 1 18.3577 1.3157 1.95722
1675 1 1 0.752064 3.39929 0.709141
761 1 1 2.60153 2.42643 0.485414
87 1 1 3.36263 3.98688 0.780234
7680 1 1 1.9616 3.48768 0.658421
475 1 1 3.68103 2.88698 0.504752
7371 1 1 4.35472 3.94148 37.1781
6925 1 1 4.51694 3.35496 0.753528
7539 1 1 6.01685 4.07976 0.426619
945 1 1 6.43634 4.2729 1.22962
496 1 1 6.70087 3.2848 0.905688
416 1 1 8.4925 2.74881 1.07349
7699 1 1 7.69839 3.42192 0.364184
1739 1 1 8.48413 4.62214 1.40053
1687 1 1 9.66134 3.14188 0.843228
102 1 1 9.27963 3.73459 37.5046
15 1 1 10.6873 3.75512 0.856111
7611 1 1 10.3764 3.57758 37.3951
28 1 1 11.5344 4.0991 1.8343
7708 1 1 12.4767 2.57586 37.3826
934 1 1 12.2193 3.2941 1.41811
508 1 1 11.6282 3.46056 0.371069
30 1 1 13.1755 3.40573 0.588882
506 1 1 14.0191 2.58468 0.335686
471 1 1 15.2657 4.11261 1.42941
583 1 1 15.0877 2.9855 0.257886
72 1 1 17.6665 4.982 37.6172
34 1 1 17.1351 2.89439 0.733302
7986 1 1 16.2967 3.83899 -0.0103093
478 1 1 18.3242 4.36778 0.827416
442 1 1 1.68928 4.24638 37.1697
520 1 1 1.20551 5.36473 0.904549
7351 1 1 0.541563 4.38021 0.286398
362 1 1 2.70284 6.36536 0.762261
1337 1 1 5.2376 5.08654 1.62436
7700 1 1 7.1322 4.51864 0.322998
209 1 1 5.2322 4.71007 0.529075
6931 1 1 6.70355 5.48793 0.46614
533 1 1 9.65191 4.69871 0.456029
633 1 1 9.94482 5.29184 1.25395
616 1 1 9.74745 4.22458 1.34703
537 1 1 10.9085 4.74214 1.30177
581 1 1 10.9998 6.05106 0.841399
623 1 1 11.7746 5.25751 1.10117
556 1 1 12.4794 4.69092 0.363181
146 1 1 13.3784 5.54117 0.114658
150 1 1 13.3406 4.89163 1.04659
1000 1 1 14.751 5.31709 0.386051
546 1 1 15.4349 5.10052 1.20541
1194 1 1 15.6882 4.55721 0.262381
7603 1 1 16.6164 4.98983 0.577804
68 1 1 16.5613 4.74738 1.56142
7239 1 1 0.84913 6.43296 37.4909
634 1 1 0.259093 6.56155 0.67169
481 1 1 0.635321 6.89221 1.61292
7249 1 1 1.71193 6.19691 1.28659
440 1 1 3.47209 6.93485 0.081293
1290 1 1 4.1122 5.73192 1.11151
7366 1 1 4.6044 7.04895 0.572449
94 1 1 5.66614 6.04522 1.47837
7803 1 1 6.79124 7.04644 1.08029
497 1 1 8.6407 7.00775 0.842335
1310 1 1 7.77117 5.34456 0.732223
59 1 1 7.71535 6.62964 0.712561
1026 1 1 9.09071 5.60124 0.700567
177 1 1 11.0995 7.32467 0.265322
538 1 1 12.5894 5.93712 0.835962
579 1 1 12.2735 7.32872 37.56
476 1 1 14.5539 6.87008 0.439978
7796 1 1 13.158 7.24407 0.686831
552 1 1 15.7327 6.14184 0.0652249
1037 1 1 15.6185 7.39637 1.42302
1360 1 1 17.2315 5.88872 0.812133
999 1 1 18.5561 6.80586 37.4158
550 1 1 18.2578 6.04355 0.394423
979 1 1 17.4194 6.91655 0.215533
241 1 1 0.797322 9.33427 1.18545
6867 1 1 18.7167 7.8981 0.112341
1409 1 1 2.2148 7.11904 1.19444
886 1 1 2.39187 7.53358 37.2323
7841 1 1 4.34313 8.25241 0.72791
852 1 1 3.28822 7.21795 1.3041
569 1 1 3.28259 8.32232 0.543907
983 1 1 4.06155 9.20608 1.43376
1461 1 1 5.45279 7.63171 1.69777
52 1 1 6.47143 7.62413 0.174868
7377 1 1 6.98244 8.35611 1.52606
7748 1 1 8.2128 9.05152 0.180622
930 1 1 7.28649 8.35842 0.277531
7751 1 1 9.74673 7.10535 0.8145
1327 1 1 8.88444 8.1144 1.48151
91 1 1 10.5471 7.81578 0.971785
1478 1 1 11.7304 7.0886 1.06727
7071 1 1 11.5825 8.98852 37.5153
186 1 1 14.0282 8.39385 0.069554
626 1 1 14.8012 8.01547 0.588109
444 1 1 17.0771 9.09221 0.745177
1038 1 1 17.0944 7.85062 1.02205
563 1 1 16.3417 7.50635 0.026783
195 1 1 17.6394 8.03581 0.140353
7924 1 1 0.305427 9.27054 0.098201
1369 1 1 1.49382 9.10568 0.296923
124 1 1 1.98578 8.48675 1.17749
164 1 1 2.47259 9.86766 1.23267
7854 1 1 3.29275 9.77064 0.322445
7847 1 1 4.29161 9.55554 0.473213
1366 1 1 5.54395 7.98014 0.598057
653 1 1 6.10535 8.81233 1.13868
175 1 1 6.32074 10.0219 0.446584
647 1 1 7.04132 9.59837 1.35376
7734 1 1 8.6143 9.83465 1.09773
1105 1 1 9.0908 8.46012 0.0759579
618 1 1 9.56927 10.0036 0.525423
1067 1 1 10.1287 8.90287 0.626755
7432 1 1 11.8247 8.5792 1.33293
1023 1 1 15.5693 8.42727 37.4693
993 1 1 13.7591 9.88252 1.39422
78 1 1 14.7258 9.7386 1.8294
636 1 1 16.145 9.35146 0.13701
200 1 1 16.3999 10.0596 1.29685
1072 1 1 15.5228 10.1025 0.843388
559 1 1 17.6711 9.90782 1.03256
45 1 1 18.28 8.68707 0.958686
609 1 1 0.274815 11.7499 0.972797
642 1 1 0.356551 10.4858 0.552044
6569 1 1 2.22625 11.7823 1.05558
197 1 1 3.28293 11.0895 0.141799
206 1 1 4.18917 11.1043 0.537146
970 1 1 6.80473 10.5391 1.53916
290 1 1 6.68745 11.1833 0.593311
7822 1 1 7.99348 10.7045 1.19148
7935 1 1 7.52369 11.2205 37.261
7808 1 1 10.0503 11.2807 0.260021
1420 1 1 9.24232 10.567 1.39028
7334 1 1 8.94825 10.8976 0.328012
228 1 1 11.6557 10.2003 0.352358
142 1 1 10.57 9.84029 0.909903
227 1 1 12.7308 11.7485 0.981202
638 1 1 12.2805 9.39581 0.941228
1073 1 1 13.4232 10.7757 1.1095
276 1 1 15.315 11.2811 0.944999
270 1 1 18.1687 11.4608 0.453821
7322 1 1 17.345 11.1724 1.14919
393 1 1 18.4636 10.8488 1.48731
7880 1 1 0.751238 12.7202 0.267938
1852 1 1 0.677642 12.4391 1.73098
7835 1 1 1.65699 12.8131 2.14238
7921 1 1 1.7538 12.4701 0.46099
293 1 1 2.39557 13.4504 1.52211
201 1 1 4.29355 12.1888 0.460259
7499 1 1 5.40829 12.5548 37.5176
1173 1 1 4.52856 13.2556 1.00581
1089 1 1 6.87224 11.6552 1.6299
342 1 1 7.05301 12.3489 0.124646
1148 1 1 7.52413 12.8866 1.32075
1508 1 1 8.20883 12.2066 0.121349
1102 1 1 9.97165 12.7384 0.861284
257 1 1 10.9783 12.3897 0.300769
256 1 1 11.7441 11.55 0.270787
273 1 1 12.343 12.8265 0.826558
592 1 1 13.8299 12.7538 37.6204
7480 1 1 13.6866 12.0852 0.75221
7395 1 1 15.8839 12.3142 1.39296
4 1 1 15.5089 13.1289 0.979414
1074 1 1 14.4524 11.4925 0.369761
7838 1 1 14.5509 12.3826 1.47934
7791 1 1 17.0922 12.2131 1.16325
165 1 1 18.4862 12.5995 0.157466
7925 1 1 17.404 12.9067 0.207243
1199 1 1 18.5703 13.5049 0.819727
7968 1 1 0.817672 13.5504 1.08526
1154 1 1 2.72027 14.5552 1.12058
7849 1 1 2.30626 13.6042 0.0840623
404 1 1 3.36035 12.8197 0.759668
1529 1 1 3.76009 14.4807 1.83586
7614 1 1 3.87729 14.4997 0.773906
7180 1 1 5.86701 14.231 1.40171
7937 1 1 6.23873 12.9882 37.3081
1136 1 1 6.10133 13.2057 0.750414
296 1 1 7.59221 13.9149 0.496919
7503 1 1 8.29452 14.4429 1.14741
229 1 1 8.48548 13.3232 0.84408
7864 1 1 10.9141 13.0975 0.951326
602 1 1 11.6937 14.1898 0.862723
7508 1 1 12.688 14.6494 0.907746
7942 1 1 13.0906 13.9821 0.39224
683 1 1 15.5652 14.2614 1.34437
7551 1 1 14.0061 14.2278 1.08677
7840 1 1 14.5318 13.5 0.209547
236 1 1 17.2093 14.8348 0.532842
1078 1 1 16.7757 13.5726 1.46274
758 1 1 18.5817 14.55 0.915108
397 1 1 0.567138 15.1745 37.6361
194 1 1 0.868139 14.6333 1.02746
648 1 1 1.21789 14.15 0.131259
7964 1 1 1.03566 15.7064 0.887001
7086 1 1 2.19542 15.5665 0.61316
207 1 1 3.84504 16.4462 1.56054
1145 1 1 6.59519 15.0584 1.36799
249 1 1 9.45383 15.8116 0.74314
51 1 1 7.0489 15.154 0.400459
7516 1 1 10.3627 14.4665 0.521966
7858 1 1 11.1434 15.0714 0.22881
7829 1 1 13.0018 15.46 0.295121
736 1 1 11.784 15.4965 1.04919
7437 1 1 13.9408 15.3207 0.558232
7903 1 1 16.1453 14.2752 37.3729
204 1 1 17.2956 15.9148 0.779208
7622 1 1 16.2519 14.861 0.615472
791 1 1 18.3266 15.5531 1.30737
7926 1 1 0.343008 16.5558 0.748739
7755 1 1 1.78062 14.979 37.3763
318 1 1 1.22085 17.2792 1.67995
7972 1 1 2.20513 16.4143 1.80559
7523 1 1 2.35082 16.7967 0.741657
319 1 1 3.07537 17.6101 0.0923348
370 1 1 4.03272 17.2109 0.869907
696 1 1 4.72768 16.2923 0.676097
367 1 1 6.04812 17.0131 1.25658
7930 1 1 6.22631 16.5978 0.27783
411 1 1 7.32585 17.3108 1.38972
775 1 1 8.01746 17.705 0.260432
381 1 1 8.151 16.0314 1.44238
7983 1 1 10.4885 15.6572 1.28986
13 1 1 9.15083 16.7144 0.641203
377 1 1 9.6029 18.1249 1.33226
31 1 1 10.4334 16.8384 1.40304
658 1 1 12.7042 17.7865 0.194826
7994 1 1 11.4297 16.4835 0.782396
662 1 1 12.1368 17.0246 1.3715
1142 1 1 14.229 16.6159 1.37755
668 1 1 13.3286 16.706 0.453925
306 1 1 15.3607 16.509 0.817519
670 1 1 15.767 15.4729 1.471
7520 1 1 17.3823 16.9444 0.249371
7638 1 1 16.3264 17.2619 0.310389
7040 1 1 16.8187 16.9115 1.39106
33 1 1 18.1888 16.0008 0.385491
6724 1 1 18.448 16.9644 0.0334916
7919 1 1 17.921 16.4771 1.72752
7996 1 1 0.756522 0.28786 0.21876
797 1 1 0.531135 17.8095 -0.0124165
834 1 1 1.55058 17.6363 0.520953
7122 1 1 2.27361 18.3289 0.361794
771 1 1 2.47646 18.1131 1.47084
332 1 1 4.90654 17.5889 0.0197816
726 1 1 6.56935 17.7889 0.648439
60 1 1 7.41308 18.5489 0.748716
141 1 1 8.90788 18.3575 0.567474
375 1 1 10.5705 18.5868 0.633135
7990 1 1 12.7184 18.5747 0.86546
7146 1 1 11.1766 17.9569 1.37042
7549 1 1 13.1027 0.0238887 37.2747
390 1 1 13.6319 18.1708 0.583903
352 1 1 14.6249 17.9759 0.274354
7913 1 1 14.8825 18.5221 1.3379
7593 1 1 16.6845 18.1047 0.665066
754 1 1 16.6971 18.6721 1.4896
1198 1 1 0.115308 18.8283 1.13484
398 1 1 18.6479 0.0803384 37.5633
430 1 1 0.907059 1.76536 2.24486
1158 1 1 1.4862 0.909596 2.65209
336 1 1 2.68798 18.6388 2.51833
1239 1 1 2.93002 1.25495 2.32712
7280 1 1 4.16199 0.880558 1.85738
1650 1 1 4.15481 0.477531 3.06543
7631 1 1 5.22754 1.13655 1.44261
5 1 1 6.36913 1.6226 1.58341
41 1 1 6.80501 1.05934 2.8762
7646 1 1 7.24774 1.64743 1.92382
419 1 1 8.23105 18.1477 1.51491
1250 1 1 7.80873 0.179334 1.89963
779 1 1 9.86557 1.15482 1.66062
1270 1 1 10.2925 0.961312 2.58785
422 1 1 13.0929 0.770784 2.16113
139 1 1 12.6396 1.94338 2.87971
7150 1 1 11.4988 1.24003 1.96291
746 1 1 13.9372 1.44543 2.06056
824 1 1 14.1055 0.364255 2.00916
784 1 1 15.0212 1.09358 2.1087
7478 1 1 15.4751 0.497385 3.12099
7228 1 1 16.624 0.652644 2.77048
1106 1 1 17.4783 1.18097 2.47487
364 1 1 17.1046 1.73065 3.51305
356 1 1 17.4553 0.0825687 2.17
1238 1 1 18.4229 0.100938 2.69787
7992 1 1 0.43221 2.15222 1.16719
7678 1 1 2.60117 0.659752 1.59782
1160 1 1 2.5196 2.25864 1.8199
2134 1 1 2.7186 2.40577 2.9347
491 1 1 3.77499 2.34448 2.14931
7685 1 1 4.84004 2.6465 2.16651
6856 1 1 5.64685 1.87616 2.28799
1168 1 1 6.96896 2.28608 2.74604
814 1 1 8.12724 1.76258 1.39429
55 1 1 9.69179 2.08831 0.955884
385 1 1 8.92214 1.85103 2.06173
908 1 1 10.227 2.53991 1.64799
7779 1 1 11.6198 2.33178 2.16545
7997 1 1 12.9254 2.68434 1.92602
505 1 1 13.9293 2.6599 1.39628
32 1 1 13.689 2.31129 2.57989
1670 1 1 16.2361 2.00028 2.96717
1196 1 1 14.5976 1.82836 2.74768
7589 1 1 15.8553 1.33683 1.57485
2033 1 1 16.7029 2.25158 2.07324
109 1 1 17.6742 1.84885 0.909665
115 1 1 0.502079 2.67651 3.00447
1640 1 1 17.9432 2.25859 2.57789
82 1 1 0.22061 3.45081 2.3192
321 1 1 1.65856 2.72384 2.39527
913 1 1 2.25161 3.66807 1.71712
1280 1 1 3.39523 3.22352 1.86553
885 1 1 4.49097 3.46415 2.71467
455 1 1 5.24733 4.02212 1.90178
7219 1 1 6.585 3.45213 2.5831
1295 1 1 7.71508 2.98692 2.11763
7423 1 1 9.29884 3.07413 2.04247
7 1 1 9.18373 4.39038 2.16583
473 1 1 10.092 3.10865 3.3371
511 1 1 11.0209 3.20159 2.46859
149 1 1 12.3196 3.42279 2.53846
387 1 1 12.9835 2.88747 3.28935
113 1 1 14.964 3.29536 2.37413
420 1 1 13.3354 3.59906 1.77017
7636 1 1 15.466 2.2783 2.02716
1316 1 1 15.6046 4.19539 2.43839
786 1 1 16.2927 3.63401 1.1978
474 1 1 17.2052 3.08878 2.33495
2432 1 1 17.5766 3.63043 1.41788
2029 1 1 18.5209 2.54108 1.77673
1315 1 1 0.0531272 4.79902 1.56764
1319 1 1 1.27606 4.84658 2.21728
98 1 1 2.12218 5.43847 2.30979
806 1 1 2.25185 4.84737 0.982284
1336 1 1 4.44375 4.78212 2.97583
1776 1 1 5.5641 5.48827 2.73935
1373 1 1 6.31141 5.29795 1.88618
7698 1 1 7.96126 5.56924 1.94479
7762 1 1 7.09086 5.87341 1.29418
376 1 1 9.31402 5.43242 2.19926
224 1 1 10.391 4.91981 2.28888
460 1 1 10.256 3.97305 2.72473
1374 1 1 9.71691 5.87205 3.26515
978 1 1 12.5371 4.33756 1.44605
862 1 1 12.0373 4.81833 2.51936
7754 1 1 14.4004 5.1554 1.73403
954 1 1 13.359 4.80862 2.20638
2197 1 1 15.0988 5.38062 2.48963
514 1 1 16.7343 4.08515 2.27518
1359 1 1 16.1033 5.11139 2.42253
7715 1 1 18.5441 5.76177 1.44618
1751 1 1 17.69 4.76132 1.58028
7756 1 1 0.819428 5.7936 1.87388
522 1 1 0.118081 5.8773 2.81033
7643 1 1 3.0636 5.86849 1.79889
449 1 1 1.66985 6.67695 2.23203
1330 1 1 3.6513 5.95079 2.73476
637 1 1 4.47494 5.49288 2.2599
566 1 1 6.12584 6.46496 2.39184
527 1 1 6.93268 6.05383 2.23669
138 1 1 7.72642 6.66829 2.36124
2103 1 1 8.46543 6.38244 1.64386
446 1 1 8.61008 7.39139 2.35905
171 1 1 9.529 6.58461 1.63991
1019 1 1 9.67154 6.85958 2.92688
909 1 1 11.0378 6.98945 2.55195
973 1 1 10.6493 6.88583 1.40674
1668 1 1 11.3711 5.46303 2.57754
995 1 1 13.9634 6.05985 1.59292
1273 1 1 12.776 6.39363 2.53593
7714 1 1 15.7716 6.06488 1.57263
193 1 1 14.903 7.3582 2.5658
554 1 1 16.5636 6.79737 2.14856
519 1 1 17.5188 6.79695 1.64427
1637 1 1 17.9982 6.13665 2.40319
808 1 1 1.42759 8.0596 2.08441
568 1 1 0.24055 8.15981 1.64977
153 1 1 2.55462 7.4527 2.08489
1410 1 1 2.46529 8.32843 2.99894
1045 1 1 3.6802 7.39879 2.44442
445 1 1 4.46803 6.77539 1.87791
580 1 1 4.52955 8.26614 2.22229
53 1 1 6.15725 8.61515 2.73899
539 1 1 7.70035 7.38519 1.60777
555 1 1 9.62096 7.51145 2.1459
232 1 1 9.18491 8.24728 2.81951
140 1 1 11.1765 7.74714 2.01798
2094 1 1 10.1608 8.60793 2.26871
1036 1 1 12.3747 8.48176 2.69222
1350 1 1 14.2106 8.41716 2.46482
591 1 1 12.4522 7.72813 1.70623
7798 1 1 14.0314 7.65138 1.35196
188 1 1 14.2119 8.79223 1.26476
1473 1 1 15.2011 8.4655 1.99474
7758 1 1 16.0344 8.30725 1.22331
1353 1 1 15.9989 7.84619 2.32735
441 1 1 17.7056 8.31914 2.04815
922 1 1 18.1824 7.58222 1.17689
959 1 1 18.736 7.5161 2.64166
7806 1 1 1.18248 9.26133 2.33097
239 1 1 2.08461 8.87818 2.25729
1083 1 1 1.66484 9.23859 3.39463
6484 1 1 3.02836 9.78643 2.24982
81 1 1 2.986 8.72054 1.37937
90 1 1 3.41399 8.3203 2.12488
573 1 1 4.16022 9.8966 2.49935
925 1 1 5.59394 10.0795 1.96811
215 1 1 6.51792 9.34728 2.17134
374 1 1 7.71705 9.77003 2.23054
1098 1 1 8.6099 9.30892 2.55721
357 1 1 7.40054 9.9599 3.24697
890 1 1 7.45789 8.73022 2.59718
1417 1 1 7.88889 8.86263 1.57866
7772 1 1 9.40677 9.86036 2.28692
178 1 1 9.58417 8.90342 1.48551
1429 1 1 11.2082 8.60937 2.97737
7712 1 1 10.5376 9.55022 2.92706
948 1 1 12.0105 9.45288 2.74605
1422 1 1 11.4875 9.49021 1.60341
231 1 1 13.1734 8.55843 1.10153
1507 1 1 13.979 9.63301 2.47445
997 1 1 17.0009 9.19915 2.97022
7397 1 1 16.3592 8.81111 2.14492
1314 1 1 -0.00937328 9.39127 1.87683
2357 1 1 17.6954 9.35688 2.04833
1802 1 1 0.399099 8.67228 2.62966
1521 1 1 1.30563 11.2326 2.22025
1001 1 1 1.40048 11.303 3.69747
720 1 1 0.259567 10.2614 2.3706
2285 1 1 1.23164 10.1132 2.84874
564 1 1 2.23515 10.517 2.019
365 1 1 3.57678 10.0394 1.20733
7928 1 1 3.58325 10.7348 3.05229
1048 1 1 5.46838 9.61853 0.913081
7843 1 1 5.60333 11.1452 2.0955
1411 1 1 4.66811 11.3005 1.57039
358 1 1 6.392 10.3323 2.49908
7774 1 1 7.36508 10.8229 2.43606
1017 1 1 8.09284 11.4601 1.86638
7862 1 1 10.3375 10.5456 2.10662
694 1 1 11.4173 10.3792 2.44704
235 1 1 12.5462 11.4392 2.11277
7908 1 1 12.3653 10.4684 1.18149
1538 1 1 13.4992 11.2538 2.9565
669 1 1 14.3772 11.1902 1.55257
1039 1 1 12.3977 10.4494 2.49229
7428 1 1 15.5077 11.4355 2.49758
1396 1 1 16.5767 11.503 1.87392
7804 1 1 17.0478 10.599 2.01539
7444 1 1 16.4185 11.0247 2.82573
84 1 1 17.999 10.1519 2.91624
125 1 1 17.6132 11.1194 2.61348
1450 1 1 0.86058 12.0165 2.7609
1484 1 1 18.5682 11.9711 1.88405
1005 1 1 1.8884 12.0161 2.945
7403 1 1 2.14663 13.2326 3.21884
1365 1 1 2.49917 12.0024 2.02235
7482 1 1 3.88906 12.0664 1.45382
686 1 1 3.38576 12.1375 2.51793
613 1 1 5.09895 13.1557 3.28633
233 1 1 5.90297 11.5949 1.1176
691 1 1 6.79979 12.1673 2.91998
1573 1 1 8.47221 12.5624 1.53976
1135 1 1 7.7345 12.2542 2.37827
1509 1 1 9.28836 11.6861 1.55124
7811 1 1 8.68871 11.6544 2.97369
7780 1 1 11.7538 12.0785 1.32845
254 1 1 10.8709 13.2358 1.88281
225 1 1 9.49394 13.0956 2.20988
261 1 1 11.9776 12.9048 1.97634
916 1 1 14.5124 11.3385 3.16481
1389 1 1 15.8149 13.3906 2.24332
2234 1 1 16.9275 12.5665 2.18309
192 1 1 18.0422 12.8343 1.60187
1046 1 1 18.7309 13.8088 1.89481
289 1 1 0.156393 12.8832 2.64033
246 1 1 2.42722 14.6613 2.17983
7658 1 1 1.10464 13.9357 2.12526
243 1 1 3.57694 13.0826 2.98417
1282 1 1 3.49653 13.2299 1.88576
685 1 1 5.04805 13.9939 2.50247
687 1 1 7.1027 13.3362 2.24748
16 1 1 6.12057 14.7552 2.37331
7543 1 1 8.32481 13.1161 2.42261
213 1 1 8.87312 14.0634 2.2856
1908 1 1 9.32054 13.8455 1.18775
277 1 1 11.119 13.9643 2.41321
2661 1 1 10.0482 14.3377 2.08681
269 1 1 12.627 13.8873 2.60526
259 1 1 12.4088 13.7475 1.39556
7834 1 1 13.8271 12.9993 1.04132
1108 1 1 14.6959 13.4005 1.44312
629 1 1 14.2751 14.8571 2.76819
280 1 1 17.5546 14.0862 2.42618
727 1 1 1.35181 15.4685 2.56779
310 1 1 0.778972 16.4015 2.07649
873 1 1 1.74359 14.8941 1.46782
643 1 1 4.23783 15.3844 1.76002
248 1 1 3.2063 16.5403 2.59281
1453 1 1 5.18378 15.2646 2.43291
7455 1 1 5.19848 15.7913 1.55925
344 1 1 8.85035 15.3606 2.13929
304 1 1 10.8811 14.7291 1.61065
1506 1 1 10.1057 16.1494 2.31354
379 1 1 12.7 15.8429 1.50062
1151 1 1 12.8785 15.3591 2.39669
699 1 1 11.986 14.6593 2.21462
64 1 1 13.7695 15.6271 2.99109
990 1 1 13.8993 15.4187 1.6205
7920 1 1 15.4621 15.0847 2.63403
7872 1 1 14.7318 15.9639 2.30351
6719 1 1 14.9144 15.0754 0.907858
7561 1 1 16.8634 15.9569 1.80929
590 1 1 16.5434 14.3384 2.03829
278 1 1 17.5456 15.0551 1.4816
282 1 1 0.224235 14.9107 2.00232
1997 1 1 17.0665 15.3689 2.75102
1526 1 1 2.36988 17.4036 2.27509
331 1 1 2.25071 16.172 2.82605
7651 1 1 3.04245 17.1758 1.29193
1172 1 1 6.22218 16.0655 1.90613
487 1 1 4.58162 16.2659 2.19488
19 1 1 6.82471 16.9734 2.46257
700 1 1 7.24378 15.6845 1.984
7214 1 1 7.88578 16.7069 2.15411
286 1 1 9.0499 16.4298 1.80035
1533 1 1 11.2044 16.9334 2.15711
1192 1 1 12.0297 16.2105 2.74776
837 1 1 13.4614 16.6779 2.20655
785 1 1 15.2117 17.0675 2.51611
7844 1 1 16.0403 16.0022 2.45839
7870 1 1 15.8511 17.3744 1.39558
234 1 1 17.28 16.6905 2.51192
840 1 1 18.3548 17.2317 2.66775
399 1 1 1.18522 0.0805573 1.38119
412 1 1 0.87098 17.6381 2.52647
1558 1 1 0.3331 17.4963 1.10138
1208 1 1 3.90333 18.4336 0.930862
1129 1 1 3.671 17.7906 2.32462
1932 1 1 4.94347 18.4441 2.40401
340 1 1 5.61839 17.6878 2.57369
690 1 1 7.69205 17.7653 2.24656
1301 1 1 6.44483 17.7353 1.8235
7661 1 1 8.5632 17.0879 1.26848
829 1 1 8.36505 18.2717 2.76333
820 1 1 9.70166 0.0367451 2.42196
9 1 1 9.10091 17.7432 2.21334
740 1 1 10.6868 18.8055 1.69844
7911 1 1 11.6015 18.754 2.07369
316 1 1 12.4482 18.0122 2.26971
7948 1 1 13.5669 18.3529 1.69741
433 1 1 15.734 18.1371 2.13744
753 1 1 17.3741 17.8286 1.84369
328 1 1 16.9247 18.3184 2.89535
1474 1 1 0.0299581 18.0574 2.003
12 1 1 17.7877 17.944 0.868346
40 1 1 0.600808 18.6759 4.45612
789 1 1 0.531669 1.19497 4.04387
802 1 1 2.71903 0.554784 4.41037
1122 1 1 4.63587 1.10565 4.11098
43 1 1 3.65075 1.16011 3.8303
7616 1 1 5.94312 0.201057 1.77899
857 1 1 6.56744 1.68316 3.57179
1541 1 1 6.77861 0.0888434 3.66456
29 1 1 7.75418 0.661336 3.18793
7627 1 1 8.75299 0.538332 2.82608
863 1 1 7.74436 0.820848 4.40587
27 1 1 8.92995 0.292082 3.98046
1130 1 1 8.73112 1.65402 3.71337
941 1 1 10.0512 0.243628 4.42738
869 1 1 10.2892 0.231946 3.47188
417 1 1 10.5532 1.57053 4.32127
26 1 1 12.5202 1.77917 3.92851
821 1 1 11.4637 0.941383 3.79255
1540 1 1 12.2995 1.01022 2.98253
1187 1 1 12.9787 0.499136 3.62897
151 1 1 13.7846 1.18607 3.03644
1590 1 1 14.1554 18.7949 4.41784
1143 1 1 15.0329 1.44935 3.74874
766 1 1 16.5241 0.350494 3.9553
795 1 1 17.5736 0.207201 3.32857
899 1 1 1.70129 1.84416 2.99693
1638 1 1 1.18083 1.70841 4.82663
47 1 1 2.59842 1.54008 3.48015
1210 1 1 4.38916 1.47978 2.94061
503 1 1 4.35699 2.08257 4.40188
1216 1 1 3.67006 2.50308 3.57771
888 1 1 2.36349 2.12859 4.36358
889 1 1 5.7002 1.27223 3.01468
7607 1 1 4.71343 2.41648 3.26921
7298 1 1 5.90358 2.71482 2.95019
504 1 1 7.85419 2.36655 3.33655
17 1 1 7.98694 1.38929 2.63543
937 1 1 8.98226 3.11446 3.50144
7626 1 1 9.79681 1.73199 3.62908
7619 1 1 11.4784 1.9672 3.23621
838 1 1 10.5969 2.00956 2.78406
500 1 1 11.2458 2.9758 3.49173
427 1 1 13.8754 2.06537 3.61658
465 1 1 15.018 2.0193 4.7207
912 1 1 14.8034 2.56842 3.42541
1223 1 1 15.6399 3.20268 3.08875
800 1 1 16.0571 1.42785 4.03737
112 1 1 17.3771 2.45717 4.35644
35 1 1 17.9478 1.28612 3.36511
2071 1 1 17.7819 3.4419 4.8122
1964 1 1 17.4515 2.90651 3.46703
1644 1 1 0.822101 2.51005 4.1865
488 1 1 2.50523 3.52209 2.69104
450 1 1 1.75403 4.0551 2.76376
884 1 1 1.0334 3.75807 4.11048
403 1 1 1.96376 2.8764 3.50243
1242 1 1 2.89855 4.20757 4.48056
767 1 1 3.69136 4.13899 3.85682
89 1 1 5.2438 3.4883 3.39615
1299 1 1 4.84374 4.1213 4.25308
1206 1 1 7.00759 3.95642 3.5889
2150 1 1 8.41024 3.99196 3.26569
217 1 1 10.0914 4.22983 3.80552
971 1 1 8.18971 3.33405 4.03419
470 1 1 11.1522 4.54267 4.61486
876 1 1 11.4124 4.10666 3.15685
1338 1 1 12.1414 3.03619 4.10388
1597 1 1 13.8798 3.0597 3.55189
495 1 1 13.9316 4.01871 2.4666
910 1 1 16.0539 2.54696 4.18715
515 1 1 14.757 3.74306 3.22633
1265 1 1 16.6018 3.39394 4.40334
156 1 1 16.1653 4.23683 3.54941
119 1 1 17.2363 3.89305 3.34349
1197 1 1 18.7634 3.3011 3.95241
1717 1 1 0.0705654 4.86191 3.83
603 1 1 2.65671 4.47763 3.17455
848 1 1 2.20851 5.91249 3.37754
483 1 1 1.36824 4.89668 3.59069
7524 1 1 4.79119 5.83075 3.20621
887 1 1 5.24509 5.28561 4.14938
765 1 1 5.67393 4.4296 3.16649
14 1 1 6.7827 4.85471 2.77692
1181 1 1 6.45755 4.72001 4.08795
1769 1 1 6.33765 5.59706 3.59646
1331 1 1 7.48463 4.84649 3.86834
1308 1 1 8.3185 5.14262 3.30216
553 1 1 9.45257 4.8159 3.18655
938 1 1 10.9212 6.03151 3.98675
1413 1 1 9.95058 5.34734 4.03385
588 1 1 11.7308 5.22841 3.70034
1307 1 1 12.3166 4.09656 3.52781
2232 1 1 13.2797 5.27172 3.15062
872 1 1 13.6172 4.85739 4.26996
1033 1 1 15.8129 5.29431 3.38087
801 1 1 17.1429 5.56961 3.65143
1237 1 1 18.0966 4.6411 2.95975
1759 1 1 17.7271 4.65425 3.92539
1318 1 1 18.3171 5.66152 4.36697
1442 1 1 0.959305 6.81676 4.37403
525 1 1 0.878625 5.74133 4.34787
523 1 1 1.30582 5.97742 2.93147
1334 1 1 3.43942 7.00859 3.35543
1774 1 1 4.63824 6.9151 2.92441
1781 1 1 5.62544 6.43851 3.43194
10 1 1 6.71156 6.61614 3.19562
611 1 1 7.37345 5.59159 3.06385
898 1 1 8.25623 6.17102 3.95445
1066 1 1 9.25676 6.42453 3.91925
1333 1 1 8.63785 6.28632 2.94588
147 1 1 10.3331 6.85985 3.94059
1463 1 1 12.2958 6.06792 3.42416
509 1 1 13.9082 5.66556 2.53174
1438 1 1 13.3928 6.37801 3.4851
134 1 1 14.8089 6.49712 3.30972
1441 1 1 15.291 7.64173 3.66478
1711 1 1 15.6185 6.58023 3.92708
1387 1 1 14.6615 5.51614 3.75142
2269 1 1 15.719 6.43663 2.84863
7641 1 1 0.304291 6.73916 3.43614
1443 1 1 17.489 6.63074 3.07046
1488 1 1 0.534498 7.86181 3.3859
489 1 1 1.66857 7.62451 3.979
131 1 1 2.74767 7.66095 3.78247
2177 1 1 3.82547 8.22921 3.37491
926 1 1 5.41948 7.423 3.12133
1296 1 1 6.3883 7.55699 3.17199
1381 1 1 7.05731 8.1164 3.73182
1727 1 1 7.20603 7.68167 2.571
130 1 1 7.44992 7.20999 3.62182
587 1 1 8.21454 7.96714 3.15992
2065 1 1 9.15043 7.58582 3.56288
498 1 1 10.508 8.01559 3.44382
1714 1 1 11.6558 7.41243 3.12925
606 1 1 12.5672 8.16783 4.1135
2153 1 1 14.1838 7.56032 3.24322
1715 1 1 13.6381 8.74612 3.74146
593 1 1 14.7764 8.48681 4.22573
594 1 1 16.564 6.95031 3.21047
7721 1 1 17.6924 8.36822 3.60789
960 1 1 16.6371 7.54978 3.91322
560 1 1 17.7494 7.24057 3.86965
242 1 1 1.41876 8.28175 3.05019
1034 1 1 0.631134 8.94273 3.82609
1322 1 1 1.24264 10.0096 4.43443
1405 1 1 0.591943 9.98295 3.56791
998 1 1 2.73769 10.28 4.52934
1053 1 1 2.99553 9.18949 3.79512
1724 1 1 4.23097 9.57529 4.11095
1041 1 1 4.56377 9.0882 3.11883
1049 1 1 5.34559 8.41866 3.78162
1085 1 1 6.40039 9.50543 3.45503
536 1 1 7.30199 9.12161 3.75239
1061 1 1 8.43026 9.61956 3.60179
586 1 1 8.39545 8.37281 4.09073
7827 1 1 9.47445 8.76783 3.71073
1020 1 1 10.8401 9.03536 3.97435
985 1 1 11.2235 10.2571 3.44871
303 1 1 12.8659 9.33451 3.76647
1395 1 1 14.4817 9.6338 4.28936
1480 1 1 13.553 10.1154 4.73944
914 1 1 15.5177 9.36601 4.35397
311 1 1 16.2321 8.74419 3.62212
996 1 1 14.6414 9.13858 3.09114
1757 1 1 16.9095 9.59286 3.97224
1403 1 1 18.3536 9.02285 3.01635
882 1 1 18.4063 9.64769 4.23707
7368 1 1 0.277811 11.4464 3.87939
315 1 1 2.47938 10.6835 3.08915
7888 1 1 4.60415 11.4208 2.70241
531 1 1 3.69164 10.4544 4.12501
1163 1 1 4.05768 11.4666 3.86923
1532 1 1 5.80191 10.4208 3.94358
1051 1 1 4.7695 10.366 3.16262
1376 1 1 5.06454 11.2422 3.91496
1002 1 1 7.29908 10.6383 4.19564
659 1 1 7.58269 11.7372 3.59301
7541 1 1 6.45879 11.2407 3.54551
1050 1 1 8.32703 10.5902 2.7852
615 1 1 9.76464 9.92628 3.47947
7912 1 1 11.5815 11.251 3.13435
1790 1 1 10.5241 10.8442 3.99055
1430 1 1 12.2855 10.0912 3.4796
1718 1 1 12.5744 10.705 4.35468
1512 1 1 12.5213 12.427 3.5081
628 1 1 13.3663 10.1005 3.20993
2244 1 1 14.0223 10.5375 3.75091
967 1 1 15.3651 10.5595 4.029
1080 1 1 14.9644 11.5245 4.40364
240 1 1 16.0161 11.7523 3.72
1838 1 1 16.855 10.8844 4.20828
2084 1 1 18.4567 10.6936 3.66532
1287 1 1 2.78751 11.3296 4.91912
288 1 1 2.85156 13.0759 3.94419
1012 1 1 2.43434 11.7424 4.04894
654 1 1 3.37376 12.1683 4.3784
1081 1 1 5.57515 11.994 2.6493
627 1 1 5.96811 12.1888 3.71191
621 1 1 8.28074 12.5101 3.52248
333 1 1 9.64415 12.0219 2.78469
1182 1 1 9.18924 12.0755 4.08249
614 1 1 11.3992 11.8328 3.9741
1111 1 1 11.3732 12.6904 5.01165
663 1 1 12.8909 13.2091 4.05629
672 1 1 14.0209 12.2946 2.75542
600 1 1 14.1689 13.0888 3.66341
747 1 1 14.7734 12.7504 4.49449
1825 1 1 15.0614 12.3781 3.26202
1475 1 1 17.0312 11.9656 3.11845
1368 1 1 16.0589 12.9966 3.39198
968 1 1 18.7563 12.5178 3.82767
1439 1 1 18.3215 11.9991 2.92306
755 1 1 1.67445 14.355 3.06671
1156 1 1 2.55169 14.406 4.13711
1449 1 1 2.8941 14.364 3.02986
251 1 1 1.37327 13.4934 4.2199
339 1 1 4.24867 13.2262 3.87355
7900 1 1 5.45277 13.0826 4.30983
1010 1 1 6.21624 13.2315 2.94773
7975 1 1 7.45907 13.3099 3.30023
1103 1 1 10.1615 13.4257 3.6687
1942 1 1 11.7248 13.3012 3.17512
1069 1 1 13.7285 13.5617 2.60545
305 1 1 13.7883 12.4823 4.92813
678 1 1 13.9674 13.9725 4.21232
608 1 1 15.2021 13.8149 3.55398
1596 1 1 15.867 13.5567 4.40919
2238 1 1 16.0528 14.1911 3.01296
1149 1 1 17.1156 13.2099 3.36217
2037 1 1 16.4811 14.6216 4.53715
769 1 1 18.6291 14.1508 4.58351
1406 1 1 18.6109 13.9064 3.04261
1561 1 1 17.3066 14.3147 3.71603
724 1 1 0.638344 14.5855 3.58133
1954 1 1 18.1295 16.1459 2.74184
1550 1 1 2.18399 15.1173 3.3864
1487 1 1 1.49838 15.0964 4.09697
350 1 1 2.56427 15.4955 4.26726
325 1 1 3.13247 15.4508 2.52359
1128 1 1 3.89009 14.7562 3.14817
773 1 1 5.64827 14.3376 3.26652
1131 1 1 4.35005 15.9892 3.22423
7856 1 1 7.44312 15.3871 3.62978
1530 1 1 6.72933 16.0647 2.95744
253 1 1 6.97694 14.2951 3.13322
2343 1 1 8.19186 14.4976 3.54268
7945 1 1 9.98812 15.381 3.96644
1070 1 1 9.10427 14.8652 4.28585
1170 1 1 8.55808 15.4369 3.55538
1939 1 1 9.54395 15.026 3.06403
1226 1 1 11.0427 16.2233 3.20361
1501 1 1 10.8928 15.438 2.28113
1100 1 1 10.2807 14.4865 3.7196
317 1 1 11.4149 14.7855 3.31765
1537 1 1 12.634 15.3272 3.59061
1153 1 1 13.3374 14.5686 3.13291
1427 1 1 15.4022 15.8896 3.36375
1469 1 1 14.9261 14.8064 3.66548
790 1 1 15.1192 15.8795 4.42467
435 1 1 16.2936 15.3724 3.52949
394 1 1 18.1988 14.7214 3.66792
1165 1 1 0.38765 16.1433 3.80737
7197 1 1 1.08425 17.1352 3.72963
1514 1 1 1.58068 16.0793 3.66626
1481 1 1 2.66274 16.7255 3.63499
7573 1 1 5.57082 16.1539 2.81202
2378 1 1 4.58157 16.6602 4.19473
605 1 1 7.60084 16.697 3.37011
323 1 1 6.20101 16.7991 3.34886
1133 1 1 7.9247 15.7636 2.69502
260 1 1 8.7349 16.9582 2.9974
1886 1 1 8.12669 15.8937 4.45102
698 1 1 10.0522 16.7062 3.3086
1114 1 1 10.6915 16.6023 4.27446
1107 1 1 12.971 16.3741 3.22346
7515 1 1 14.3319 16.4657 3.28135
1157 1 1 13.5526 16.0102 4.07108
1539 1 1 14.0122 17.1139 4.52516
7125 1 1 16.2445 16.5573 4.68728
437 1 1 16.5569 17.2741 3.60428
312 1 1 17.3467 15.8365 3.58751
443 1 1 18.189 16.3722 3.83641
157 1 1 0.420867 18.642 3.21558
1233 1 1 1.18716 18.6431 2.34565
778 1 1 2.66646 0.601491 3.19994
843 1 1 3.53406 18.6852 3.93811
772 1 1 3.30302 17.4354 3.77823
1211 1 1 2.29959 18.4405 3.66478
777 1 1 5.12622 17.969 3.95288
1134 1 1 5.56899 0.23465 2.93031
855 1 1 6.43919 17.6921 4.12319
7901 1 1 6.5437 18.4334 2.74075
7531 1 1 7.38925 17.848 3.37827
410 1 1 8.45751 17.6875 3.83984
1708 1 1 9.32056 18.2638 3.56901
780 1 1 11.1231 18.0579 3.00558
11 1 1 12.689 17.4614 3.31613
1906 1 1 11.6359 17.1803 3.10709
20 1 1 11.9901 0.105301 3.26026
1138 1 1 13.4158 18.5474 2.86405
7984 1 1 13.2306 18.1687 4.18323
823 1 1 13.4689 17.0989 3.66633
389 1 1 14.2581 17.8168 3.68303
798 1 1 15.305 17.2615 3.94492
7155 1 1 14.9193 18.2573 2.75014
1110 1 1 14.9 18.6734 3.67679
7887 1 1 0.341734 17.7215 3.85239
409 1 1 18.1211 17.8218 3.55685
1200 1 1 1.68829 0.917492 3.61965
1293 1 1 0.732407 0.825685 5.27635
846 1 1 1.87635 18.7217 6.1203
1600 1 1 3.47279 0.682806 5.06429
819 1 1 4.41999 0.91223 5.57744