ITEM: TIMESTEP
4500
ITEM: NUMBER OF ATOMS
8000
ITEM: BOX BOUNDS pp pp pp
0.0000000000000000e+00 1.8820720577620570e+01
0.0000000000000000e+00 1.8820720577620570e+01
0.0000000000000000e+00 3.7641441155241139e+01
ITEM: ATOMS id mass type x y z
7998 1 1 3.80181 0.775744 36.5267
38 1 1 5.00336 0.987619 0.776266
764 1 1 6.80366 0.583328 2.92785
292 1 1 7.72979 17.5353 1.46197
6 1 1 5.92361 0.792764 1.6439
7339 1 1 9.04193 2.55618 36.9857
7287 1 1 7.23896 1.25944 0.435033
7620 1 1 8.29571 0.725325 1.66594
7667 1 1 9.7948 0.358739 1.15242
346 1 1 10.6847 18.2646 1.57282
421 1 1 9.89335 1.96609 0.368423
22 1 1 12.5342 0.573656 1.5435
7938 1 1 12.4906 2.11322 0.389373
501 1 1 13.1382 1.75291 1.10266
7188 1 1 14.6175 18.7979 0.789878
7987 1 1 14.2093 1.49796 0.746469
1272 1 1 15.1987 18.0782 0.0601792
1713 1 1 15.909 18.6223 0.667234
79 1 1 15.3479 0.150966 1.69101
105 1 1 16.9323 18.4815 0.0224429
835 1 1 0.890765 0.292746 1.43189
366 1 1 18.7029 2.27028 36.637
7560 1 1 16.8139 0.112611 1.10188
917 1 1 2.96135 0.599931 1.14634
7601 1 1 18.3847 2.98776 1.92263
841 1 1 3.49407 0.996063 0.367342
1232 1 1 3.02819 1.96628 37.6073
155 1 1 4.28958 0.442812 1.41258
849 1 1 3.97071 1.98045 36.0506
933 1 1 4.50358 1.16205 37.5406
324 1 1 3.56585 3.63439 1.59226
1201 1 1 3.80426 1.54556 1.30839
493 1 1 5.64999 1.88714 0.621607
7644 1 1 7.21682 3.81911 37.596
7253 1 1 5.21872 3.81153 2.10291
1178 1 1 9.93985 1.46881 36.4549
7624 1 1 9.93486 0.985042 0.234973
461 1 1 10.4439 4.03164 36.9284
781 1 1 11.2918 2.12034 0.956296
145 1 1 10.4397 2.73479 37.2611
65 1 1 14.2521 3.35905 0.998096
874 1 1 14.0907 1.78633 2.69386
7989 1 1 14.7433 2.55302 0.22976
7674 1 1 15.3956 3.78686 37.3393
7552 1 1 15.9346 2.32327 1.97139
787 1 1 15.3845 1.14504 36.8897
73 1 1 16.879 2.58496 0.709118
833 1 1 0.42519 1.96158 1.13938
1675 1 1 0.635627 2.4407 2.20057
761 1 1 1.51304 2.94847 1.14787
87 1 1 3.87065 3.17586 0.127868
7680 1 1 2.67587 2.10236 36.2745
475 1 1 2.68177 3.45055 0.982452
7371 1 1 3.75282 2.9889 36.5253
6925 1 1 4.63946 2.02211 0.791748
7539 1 1 5.54876 4.0149 37.494
945 1 1 8.6255 4.0071 0.383184
496 1 1 6.93296 3.34488 0.885995
416 1 1 8.42665 1.83453 1.27093
7699 1 1 7.70832 4.24361 0.871835
1739 1 1 8.19563 3.02 0.211501
1687 1 1 11.5854 4.03405 1.77105
102 1 1 9.31257 3.72646 37.2169
15 1 1 11.8886 4.90137 0.201413
7611 1 1 11.4422 3.45853 36.5368
28 1 1 11.0598 5.27368 1.46654
7708 1 1 13.4818 2.98587 0.230472
934 1 1 12.3938 2.68003 1.23531
508 1 1 12.1529 3.89726 0.143342
30 1 1 13.4076 3.84856 37.2901
506 1 1 14.4193 3.4541 36.9448
471 1 1 16.2483 3.33583 0.405775
583 1 1 15.781 2.00882 37.5929
72 1 1 17.5513 4.95528 35.5126
34 1 1 17.8723 2.46114 1.00257
7986 1 1 16.248 4.20685 36.8329
478 1 1 18.5781 5.4309 37.3342
442 1 1 1.13483 3.31382 36.4785
520 1 1 2.49496 4.76733 0.957099
7351 1 1 1.06162 3.65933 37.4339
362 1 1 3.45983 5.28857 0.587633
1337 1 1 6.66565 5.59508 2.0405
7700 1 1 7.27952 3.235 2.06768
209 1 1 4.41493 4.26471 37.2726
6931 1 1 7.89047 6.46371 0.186351
533 1 1 9.83495 4.35403 0.344704
633 1 1 10.0618 5.44061 0.852615
616 1 1 11.0402 3.07096 1.65811
537 1 1 10.8399 5.34109 37.5789
581 1 1 11.7414 6.73333 1.44153
623 1 1 11.5315 7.4393 2.17581
556 1 1 14.7612 5.53711 0.700901
146 1 1 14.1322 5.90201 35.8921
150 1 1 13.6363 5.46218 36.8287
1000 1 1 14.7125 5.42916 37.1126
546 1 1 15.8077 4.25833 0.740219
1194 1 1 15.702 5.30201 0.848437
7603 1 1 17.5755 4.72597 0.162932
68 1 1 15.0801 6.7335 0.922976
7239 1 1 2.04934 7.6322 36.314
634 1 1 0.723981 6.71813 37.1534
481 1 1 1.44447 5.43241 1.69797
7249 1 1 2.756 6.93329 1.30274
440 1 1 3.79794 6.38627 0.616458
1290 1 1 3.93946 4.3748 0.761712
7366 1 1 4.44856 7.86767 0.440694
94 1 1 4.98771 4.60383 1.29301
7803 1 1 6.76059 8.28099 0.152075
497 1 1 9.51895 5.8419 1.75773
1310 1 1 8.60797 5.15907 37.6111
59 1 1 8.87888 6.41222 37.106
1026 1 1 8.91838 5.95975 0.635175
177 1 1 10.0701 7.59634 0.526095
538 1 1 13.0208 7.06174 1.44624
579 1 1 12.8633 6.96177 0.338882
476 1 1 15.3578 7.83533 0.706443
7796 1 1 13.7036 5.89108 0.533704
552 1 1 14.3803 6.32223 37.5448
1037 1 1 16.487 7.40584 1.31496
1360 1 1 17.5248 5.58535 0.881007
999 1 1 17.9894 7.40576 0.210457
550 1 1 17.7742 5.93106 37.0448
979 1 1 16.3051 7.11971 37.4669
241 1 1 1.33711 8.87919 2.67368
6867 1 1 0.451058 8.91156 1.44903
1409 1 1 2.06805 6.39379 2.52361
886 1 1 3.59195 6.54433 37.1672
7841 1 1 2.83204 9.89991 0.549853
852 1 1 3.43099 7.98231 0.425294
569 1 1 3.43802 9.23729 37.5042
983 1 1 5.07507 10.6303 2.20217
1461 1 1 4.75402 6.74909 1.1015
52 1 1 7.87182 7.45183 37.346
7377 1 1 7.27126 8.43025 1.84053
7748 1 1 7.51315 9.09127 0.797873
930 1 1 7.09404 7.11481 0.724922
7751 1 1 11.2898 6.16439 34.962
1327 1 1 8.91615 7.12287 1.69063
91 1 1 10.3119 8.70657 0.358126
1478 1 1 12.4121 8.28284 1.49941
7071 1 1 12.2203 9.58929 36.5356
186 1 1 13.5944 10.1501 0.893654
626 1 1 16.2823 8.57063 1.09751
444 1 1 16.4523 9.86509 1.0828
1038 1 1 16.4528 8.28876 0.139226
563 1 1 16.2575 7.86818 36.7485
195 1 1 17.2166 8.09298 36.8848
7924 1 1 0.543455 10.6214 0.391009
1369 1 1 2.36865 7.8762 0.556234
124 1 1 2.09252 8.79668 36.7303
164 1 1 2.46935 9.16086 1.57434
7854 1 1 3.61533 10.1158 1.18779
7847 1 1 5.10426 10.7182 37.032
1366 1 1 5.49591 7.65375 0.114068
653 1 1 6.35665 7.92741 1.01114
175 1 1 5.57589 11.1318 1.22965
647 1 1 6.37583 8.90227 1.37786
7734 1 1 7.1659 9.56198 1.73621
1105 1 1 9.35313 8.56197 0.523283
618 1 1 9.33168 10.5705 0.391248
1067 1 1 8.63813 9.59718 37.5649
7432 1 1 11.9592 6.84749 37.2692
1023 1 1 16.1273 10.1126 36.1901
993 1 1 11.8511 9.97726 1.93116
78 1 1 15.8361 9.19029 1.72259
636 1 1 17.0558 9.20644 37.3579
200 1 1 16.7597 10.8053 0.894938
1072 1 1 16.2577 9.98061 37.571
559 1 1 18.151 11.1625 1.8559
45 1 1 18.0353 9.06465 2.17131
609 1 1 0.643911 12.5685 1.20852
642 1 1 18.7777 9.91083 1.65901
6569 1 1 0.308267 10.8803 1.59212
197 1 1 1.28313 11.6075 1.44467
206 1 1 2.4741 11.9265 0.189973
970 1 1 7.69466 11.0246 1.33881
290 1 1 6.0643 12.0807 1.21455
7822 1 1 7.57618 10.2372 0.578098
7935 1 1 6.67405 12.4915 36.2606
7808 1 1 11.3876 12.0027 1.71328
1420 1 1 9.12407 10.3557 1.55154
7334 1 1 7.77951 11.5472 37.2909
228 1 1 9.74629 8.19734 1.3774
142 1 1 10.6484 10.6138 0.928174
227 1 1 12.8687 10.9631 1.10746
638 1 1 11.1106 9.53426 0.708311
1073 1 1 13.5043 12.2347 1.99093
276 1 1 15.6166 11.1711 0.736384
270 1 1 18.0102 12.0245 1.16304
7322 1 1 18.6736 13.1906 0.785716
393 1 1 0.847031 9.68285 2.19086
7880 1 1 18.6999 13.7747 37.5833
1852 1 1 0.795935 12.0107 2.65818
7835 1 1 1.40961 13.5955 2.77762
7921 1 1 0.730624 12.7694 0.169211
293 1 1 2.49404 14.9379 2.99573
201 1 1 4.17546 11.4036 0.467288
7499 1 1 5.32845 12.2194 0.303241
1173 1 1 3.35642 12.4604 2.06561
1089 1 1 8.29105 12.1106 2.82746
342 1 1 6.48917 12.6246 37.4499
1148 1 1 7.72725 12.3697 1.07026
1508 1 1 7.76245 12.7856 37.2198
1102 1 1 8.82542 13.0218 1.4096
257 1 1 12.85 11.4059 35.5715
256 1 1 12.8714 11.6757 0.257896
273 1 1 13.3779 13.8317 0.613443
592 1 1 13.516 11.5946 36.8917
7480 1 1 14.8061 12.3763 1.24955
7395 1 1 15.8134 11.7692 1.57778
4 1 1 16.0948 12.8819 1.40392
1074 1 1 14.5636 11.0316 1.33416
7838 1 1 14.3114 13.6912 2.41449
7791 1 1 16.4218 12.6479 2.48626
165 1 1 18.3847 12.6929 35.9359
7925 1 1 17.7003 15.2335 36.5477
1199 1 1 17.528 14.3161 37.408
7968 1 1 0.445728 14.3954 1.22024
1154 1 1 1.85308 14.9867 37.3306
7849 1 1 1.63374 13.0091 37.5126
404 1 1 1.78163 13.4503 1.47135
1529 1 1 4.27752 15.1058 1.1303
7614 1 1 3.85028 16.7969 1.4685
7180 1 1 6.13036 12.7714 2.11802
7937 1 1 7.15673 13.4752 36.5956
1136 1 1 4.17049 12.3914 0.911914
296 1 1 6.01907 13.2794 0.455918
7503 1 1 6.46549 13.5852 1.51494
229 1 1 7.91613 13.3486 1.61701
7864 1 1 9.57558 12.1259 0.317358
602 1 1 11.787 12.7629 0.82126
7508 1 1 13.2631 14.1401 2.54451
7942 1 1 13.5816 13.1248 36.9089
683 1 1 15.3007 13.7883 1.75386
7551 1 1 14.0879 15.8484 2.11693
7840 1 1 14.743 13.3323 0.659402
236 1 1 16.5421 16.5422 37.0351
1078 1 1 16.8032 13.6246 0.838938
758 1 1 18.6325 14.7377 0.13226
397 1 1 2.0444 15.9478 0.367419
194 1 1 18.5719 15.6664 0.994218
648 1 1 1.15967 14.8331 0.413739
7964 1 1 0.78862 16.1408 0.616129
7086 1 1 2.66082 14.9108 0.318328
207 1 1 3.82421 17.3965 2.51424
1145 1 1 7.63655 13.9981 2.33242
249 1 1 9.50153 15.4527 0.8177
51 1 1 6.51018 14.2743 0.42906
7516 1 1 10.7937 13.1281 0.403513
7858 1 1 12.3766 14.0694 0.372795
7829 1 1 12.0684 15.5152 1.658
736 1 1 12.1351 14.5047 2.31347
7437 1 1 13.3004 15.8702 0.419303
7903 1 1 15.6798 13.194 36.4751
204 1 1 17.3971 16.6825 0.27684
7622 1 1 16.5946 13.8859 37.098
791 1 1 1.15936 15.3974 1.3858
7926 1 1 1.07523 18.0317 0.917074
7755 1 1 1.69892 14.2779 36.3475
318 1 1 2.77585 17.5799 1.65302
7972 1 1 2.85974 16.6924 1.04312
7523 1 1 1.31825 16.2736 37.3036
319 1 1 2.59908 18.5854 0.741673
370 1 1 5.6257 16.9667 1.80844
696 1 1 4.77055 18.2213 0.987822
367 1 1 5.73456 16.6771 0.00950839
7930 1 1 5.44331 15.7874 0.390676
411 1 1 7.11112 15.0129 2.40254
775 1 1 6.39961 17.5246 37.0869
381 1 1 9.23763 16.3839 1.34628
7983 1 1 10.4906 14.9069 1.07198
13 1 1 9.69444 16.2621 36.699
377 1 1 9.07243 18.5272 1.56923
31 1 1 10.0988 17.2499 1.73832
658 1 1 12.9392 17.4056 1.23086
7994 1 1 11.6615 16.5422 1.09191
662 1 1 12.572 16.3851 2.3029
1142 1 1 14.6278 17.8404 1.17595
668 1 1 12.8573 18.1834 36.713
306 1 1 15.5047 15.7284 0.973568
670 1 1 17.1297 15.5156 1.59223
7520 1 1 16.378 17.3607 0.0142278
7638 1 1 17.1021 17.1829 1.42937
7040 1 1 16.5303 16.7915 2.29895
33 1 1 18.0491 16.9396 1.10133
6724 1 1 18.1495 18.1533 0.0363352
7919 1 1 17.6852 18.0553 0.938775
7996 1 1 1.58173 2.04992 1.97737
797 1 1 1.96836 18.0029 36.7819
834 1 1 18.4762 16.6272 37.6041
7122 1 1 2.25073 0.257544 37.5351
771 1 1 1.02076 17.4489 37.3202
332 1 1 5.6902 18.6807 1.07325
726 1 1 6.64719 17.6919 1.39251
60 1 1 6.98176 0.378207 1.30848
141 1 1 7.31249 18.3568 0.576174
375 1 1 11.2271 18.6024 2.41684
7990 1 1 14.0126 0.744679 1.30428
7146 1 1 10.7988 17.4046 2.58685
7549 1 1 12.9629 0.349528 37.2034
390 1 1 14.2091 17.8362 37.5448
352 1 1 14.0519 16.6716 37.2782
7913 1 1 13.7024 18.454 0.950422
7593 1 1 16.5815 18.3037 36.7866
754 1 1 16.1785 17.8258 1.65215
1198 1 1 18.5648 0.75202 1.55024
398 1 1 0.31588 18.6203 0.0904651
430 1 1 0.462302 3.10082 3.68634
1158 1 1 1.33514 0.352824 2.46156
336 1 1 2.75713 1.22197 2.6299
1239 1 1 3.7165 2.41619 1.7657
7280 1 1 5.12504 2.97206 0.327267
1650 1 1 5.12312 0.329658 3.73578
7631 1 1 6.35283 2.27527 37.5146
5 1 1 6.71153 3.13302 36.9019
41 1 1 6.98499 1.52765 1.67061
7646 1 1 7.61009 2.30536 0.889703
419 1 1 8.45832 17.8019 2.71185
1250 1 1 9.98522 0.355099 2.55161
779 1 1 10.702 1.67423 1.97629
1270 1 1 11.2486 0.7227 1.2623
422 1 1 12.1373 0.944261 2.98355
139 1 1 13.1435 1.628 3.50165
7150 1 1 10.0309 2.36187 3.49758
746 1 1 14.458 1.95868 1.55696
824 1 1 13.6043 2.67222 3.02167
784 1 1 14.7519 0.986294 2.00169
7478 1 1 15.5559 0.966212 3.75181
7228 1 1 16.6679 1.19117 3.61964
1106 1 1 1.34994 0.0942881 3.47079
364 1 1 18.3703 1.92385 4.15493
356 1 1 17.4514 2.30673 1.95787
1238 1 1 17.8289 0.783344 2.83812
7992 1 1 0.56676 1.34203 2.41674
7678 1 1 4.18659 0.869342 3.28072
1160 1 1 2.91835 2.46796 0.919504
2134 1 1 3.39033 3.25172 2.59042
491 1 1 2.45211 3.98248 2.1806
7685 1 1 4.44345 4.93388 2.30041
6856 1 1 4.30958 1.21896 2.23013
1168 1 1 5.81509 2.07318 2.30857
814 1 1 9.5112 1.483 1.33629
55 1 1 11.2636 2.37022 36.6115
385 1 1 10.5223 3.47313 0.771889
908 1 1 13.142 4.08466 1.78005
7779 1 1 11.9564 1.6379 1.66693
7997 1 1 12.5955 3.39456 2.901
505 1 1 13.7284 3.64647 2.72799
32 1 1 13.1753 3.33031 3.87626
1670 1 1 17.1693 1.97351 2.88011
1196 1 1 14.2704 2.1336 3.67396
7589 1 1 15.542 0.799744 0.49923
2033 1 1 16.4326 0.480215 2.31143
109 1 1 0.575272 2.39778 0.26938
115 1 1 18.1066 2.34408 3.10822
1640 1 1 17.0074 3.13298 2.74105
82 1 1 17.4022 2.99967 3.66849
321 1 1 2.38822 2.73761 1.88534
913 1 1 2.6639 3.18955 37.6067
1280 1 1 3.62118 4.26381 2.38339
885 1 1 4.37203 3.64661 2.99982
455 1 1 5.17352 3.49662 1.17197
7219 1 1 6.66296 4.81783 3.00548
1295 1 1 7.93607 3.29253 1.22858
7423 1 1 9.00877 2.49322 0.605867
7 1 1 9.387 3.73334 2.85243
473 1 1 11.164 3.45344 4.85174
511 1 1 10.9241 2.59152 2.72785
149 1 1 11.9232 2.85123 2.17873
387 1 1 12.6807 2.49046 3.99815
113 1 1 15.2407 3.36557 0.638574
420 1 1 13.5396 4.04346 0.740315
7636 1 1 16.0131 1.37037 1.20753
1316 1 1 16.9766 3.40982 1.57073
786 1 1 17.7921 3.46795 37.5133
474 1 1 16.9114 4.08149 0.75181
2432 1 1 18.0503 3.60069 0.902086
2029 1 1 18.3041 1.77439 2.3044
1315 1 1 18.2748 3.74237 3.32211
1319 1 1 1.29646 3.37842 2.04075
98 1 1 3.27465 5.99971 1.42237
806 1 1 3.06994 4.33875 0.230835
1336 1 1 5.42425 4.15114 3.28157
1776 1 1 4.42136 5.59969 1.2599
1373 1 1 6.74845 5.44653 0.75321
7698 1 1 7.38952 4.38974 2.48384
7762 1 1 7.79906 6.60665 1.24637
376 1 1 8.6661 5.17981 1.55759
224 1 1 9.91617 4.78431 2.89483
460 1 1 10.9149 3.15633 3.76245
1374 1 1 10.5062 5.47721 3.92649
978 1 1 12.5554 4.81022 1.04883
862 1 1 13.0461 5.45389 2.81762
7754 1 1 15.0121 4.84664 1.87034
954 1 1 13.2849 5.14627 1.81035
2197 1 1 16.1961 4.32745 1.89126
514 1 1 15.9909 3.56719 2.7991
1359 1 1 15.4307 5.46107 2.55737
7715 1 1 0.889716 5.49563 0.675488
1751 1 1 17.5752 4.70759 1.60678
7756 1 1 0.234728 4.57585 0.80847
522 1 1 18.7213 5.57017 1.73731
7643 1 1 2.45462 5.38931 2.16737
449 1 1 2.41135 7.42492 3.46267
1330 1 1 3.64625 5.04287 3.04963
637 1 1 3.84827 5.85406 2.30615
566 1 1 3.85173 6.71791 1.67765
527 1 1 5.49791 6.66224 1.72781
138 1 1 6.60779 7.15323 1.69134
2103 1 1 8.51338 6.168 2.06011
446 1 1 9.40154 6.83944 2.59713
171 1 1 9.96281 5.95742 2.66338
1019 1 1 10.0298 7.30813 3.33958
909 1 1 10.4362 7.3681 2.40354
973 1 1 10.3748 7.06694 1.4419
1668 1 1 11.8249 5.66133 2.03917
995 1 1 14.3011 8.35532 37.3557
1273 1 1 12.6044 5.97139 1.29082
7714 1 1 14.8493 5.84823 1.61972
193 1 1 14.8759 7.42737 1.79823
554 1 1 15.9408 6.44603 1.83935
519 1 1 18.1708 6.39888 1.42236
1637 1 1 16.9197 6.07467 1.56667
808 1 1 1.01045 6.76504 3.16765
568 1 1 1.37966 8.40024 1.62406
153 1 1 3.41054 7.37761 2.49276
1410 1 1 2.92664 7.32742 5.18156
1045 1 1 5.13863 6.53768 2.80013
445 1 1 3.59035 5.02544 1.70972
580 1 1 3.45376 7.64432 1.39819
53 1 1 5.93119 8.27205 3.67867
539 1 1 8.40517 7.38843 0.566155
555 1 1 9.59938 8.00823 2.41191
232 1 1 10.0037 9.07755 2.10164
140 1 1 10.7756 8.06144 1.46048
2094 1 1 10.2368 8.55499 3.11392
1036 1 1 13.6036 8.94322 2.61596
1350 1 1 16.2696 8.75794 2.80152
591 1 1 11.2686 7.46937 0.444779
7798 1 1 13.7776 5.98911 1.6749
188 1 1 13.9008 7.41435 1.47387
1473 1 1 15.8473 8.08779 2.13747
7758 1 1 17.4241 8.0753 2.03331
1353 1 1 16.9288 9.14859 2.04114
441 1 1 18.4162 8.03448 1.49476
922 1 1 17.4127 7.02096 1.05025
959 1 1 0.332682 7.20396 1.13164
7806 1 1 1.85257 9.79018 2.54624
239 1 1 3.30507 7.57438 4.12242
1083 1 1 2.16334 9.79176 3.47303
6484 1 1 3.70142 10.4656 2.15262
81 1 1 2.26515 8.28182 2.77881
90 1 1 4.08172 8.25857 2.60093
573 1 1 3.92378 11.1088 3.17082
925 1 1 4.12745 12.147 2.47532
215 1 1 4.77769 9.02037 2.09656
374 1 1 5.78845 9.03292 2.39797
1098 1 1 8.8736 8.63692 2.07573
357 1 1 8.0775 10.7158 2.23126
890 1 1 8.12792 8.53936 2.87793
1417 1 1 7.5405 7.97849 0.855006
7772 1 1 10.2711 10.7957 2.0925
178 1 1 9.46549 9.4189 1.10022
1429 1 1 11.2587 8.93281 2.06415
7712 1 1 10.456 9.47377 2.88326
948 1 1 11.963 8.34815 2.71677
1422 1 1 10.8402 9.9065 1.93303
231 1 1 11.4536 8.47634 0.231473
1507 1 1 14.8294 10.1188 2.08569
997 1 1 18.0915 9.68567 3.93869
7397 1 1 16.5852 7.34566 2.38629
1314 1 1 0.945397 9.82669 0.972579
2357 1 1 0.259668 7.89075 2.4621
1802 1 1 0.747002 8.85151 3.77831
1521 1 1 0.917086 10.1279 3.25419
1001 1 1 1.31975 11.3139 4.49329
720 1 1 0.281462 9.7716 4.01584
2285 1 1 2.23928 10.7017 3.98573
564 1 1 2.94054 9.58809 2.38681
365 1 1 3.3842 11.9635 3.24669
7928 1 1 5.29099 11.1435 3.28882
1048 1 1 4.53346 9.35062 0.563316
7843 1 1 6.30498 10.3687 1.80176
1411 1 1 4.6019 12.9209 3.64612
358 1 1 5.83937 9.81818 0.769866
7774 1 1 8.36764 9.51772 1.40831
1017 1 1 8.76988 11.498 1.80245
7862 1 1 8.59389 11.6751 0.56458
694 1 1 11.0926 10.3552 2.873
235 1 1 12.2077 11.4163 2.37012
7908 1 1 13.5858 10.792 37.5764
1538 1 1 14.1238 10.9509 2.26096
669 1 1 14.8588 11.8839 2.15591
1039 1 1 11.834 10.0407 3.75717
7428 1 1 14.6473 12.0441 3.15519
1396 1 1 16.5845 11.1274 2.05664
7804 1 1 17.6004 9.99853 2.77486
7444 1 1 15.5041 10.7478 2.65631
84 1 1 0.0691074 8.95435 2.8284
125 1 1 18.6392 11.3192 2.8942
1450 1 1 1.46041 12.6642 3.10249
1484 1 1 18.5158 12.2479 2.09135
1005 1 1 1.71543 12.3578 3.97908
7403 1 1 1.65505 14.3276 3.52733
1365 1 1 2.65765 10.3943 1.84042
7482 1 1 1.88203 10.9021 2.44392
686 1 1 1.60094 14.6287 2.32016
613 1 1 4.73324 12.4959 4.79977
233 1 1 4.72116 11.586 1.53161
691 1 1 7.53076 11.7519 2.0605
1573 1 1 8.97472 13.2861 0.304368
1135 1 1 9.23987 12.7803 2.67525
1509 1 1 9.51964 12.2024 1.57419
7811 1 1 9.11625 11.6041 3.08123
7780 1 1 11.611 12.8971 37.4258
254 1 1 13.3098 13.0283 2.83062
225 1 1 9.84533 13.8007 2.10653
261 1 1 12.8137 13.146 37.6644
916 1 1 14.1429 10.6885 4.48006
1389 1 1 16.3003 14.776 2.63251
2234 1 1 15.7227 11.7565 3.07254
192 1 1 17.8415 13.5352 1.24656
1046 1 1 18.6007 13.6087 2.03794
289 1 1 17.8414 11.6072 3.379
246 1 1 3.00961 14.6948 1.28458
7658 1 1 0.766148 13.3472 1.92428
243 1 1 2.27306 12.4806 2.51644
1282 1 1 3.05994 12.9358 1.00694
685 1 1 3.41029 13.4015 2.65784
687 1 1 7.26115 12.8379 2.26113
16 1 1 6.45418 14.9674 1.37096
7543 1 1 8.3703 15.3826 2.69464
213 1 1 9.65826 14.2779 3.90326
1908 1 1 8.82132 14.5664 1.61427
277 1 1 11.6272 13.1183 3.73266
2661 1 1 8.53649 13.5761 2.61929
269 1 1 13.3103 15.0005 4.66896
259 1 1 12.9862 13.6621 1.62467
7834 1 1 14.1252 14.1677 1.44862
1108 1 1 14.8041 14.8138 1.13579
629 1 1 16.0816 15.221 3.87708
280 1 1 16.1991 13.8845 2.17431
727 1 1 3.1359 16.2349 3.29137
310 1 1 0.401282 16.8755 1.39822
873 1 1 1.88777 14.5092 1.06504
643 1 1 3.60607 15.4429 2.0864
248 1 1 3.04718 16.3788 2.1648
1453 1 1 5.31318 16.2989 3.35905
7455 1 1 4.6258 16.0196 1.807
344 1 1 9.80754 14.9151 1.78399
304 1 1 10.0443 13.7135 1.04444
1506 1 1 10.1532 16.4538 2.54526
379 1 1 12.9364 16.0804 1.29592
1151 1 1 12.2652 15.4852 2.92303
699 1 1 11.3235 13.4652 2.34049
64 1 1 15.0617 16.7039 2.04361
990 1 1 14.9325 14.7504 2.18989
7920 1 1 14.3348 15.8344 1.06751
7872 1 1 15.3851 16.9912 3.1714
6719 1 1 16.2705 14.8004 1.17492
7561 1 1 18.237 16.7167 2.06323
590 1 1 17.4627 14.8568 2.58069
278 1 1 17.4906 14.6887 0.850185
282 1 1 0.352465 14.5025 2.30697
1997 1 1 17.3842 16.1718 2.33969
1526 1 1 2.81675 18.7068 4.1954
331 1 1 1.51323 16.838 1.55737
7651 1 1 2.98769 18.6243 1.92552
1172 1 1 6.44635 15.6649 0.498875
487 1 1 5.98997 18.7355 2.10175
19 1 1 6.71878 16.043 2.55455
700 1 1 7.42878 14.2042 1.2767
7214 1 1 8.78488 17.4109 1.16618
286 1 1 10.0531 16.3431 0.379732
1533 1 1 10.6507 16.1294 1.21688
1192 1 1 13.4047 14.9044 1.22441
837 1 1 13.5592 17.9466 1.90806
785 1 1 14.0888 16.937 1.46717
7844 1 1 17.5254 17.2663 2.61997
7870 1 1 15.952 16.8098 1.05152
234 1 1 17.3091 18.4255 1.96437
840 1 1 18.3101 17.7679 1.75985
399 1 1 1.52417 18.3471 37.5889
412 1 1 1.21462 18.1057 2.0715
1558 1 1 0.35245 17.4571 0.512345
1208 1 1 5.35717 0.237152 0.00849596
1129 1 1 4.9408 17.9128 2.04762
1932 1 1 4.81756 0.284508 2.48675
340 1 1 6.69678 17.1164 2.16165
690 1 1 8.31112 16.5791 2.11182
1301 1 1 6.4514 16.39 1.26443
7661 1 1 7.52486 16.704 0.790374
829 1 1 9.88323 18.2609 4.05687
820 1 1 9.82773 17.8806 2.53492
9 1 1 9.29068 17.4383 3.49835
740 1 1 10.9744 18.6673 0.545393
7911 1 1 11.1777 1.23287 2.72943
316 1 1 12.3976 18.3736 1.67888
7948 1 1 13.0956 17.1054 -0.0193572
433 1 1 15.108 18.0089 2.87457
753 1 1 17.7858 0.555557 0.824113
328 1 1 16.1152 18.2098 2.61792
1474 1 1 0.204316 18.2328 1.29569
12 1 1 17.7962 0.223431 37.4032
40 1 1 18.2021 18.7999 3.53626
789 1 1 0.0627068 0.508656 4.50608
802 1 1 2.12077 1.06503 3.49749
1122 1 1 4.41854 1.49696 3.99695
43 1 1 3.62716 2.09356 2.92054
7616 1 1 6.874 1.61327 3.18397
857 1 1 7.38952 2.3922 2.69372
1541 1 1 7.25618 0.869832 3.7895
29 1 1 8.01658 0.746986 4.65326
7627 1 1 8.72135 0.357192 4.04549
863 1 1 8.38283 1.37287 3.9294
27 1 1 9.06588 18.3765 4.61675
1130 1 1 9.83409 1.71867 2.64807
941 1 1 11.48 0.200204 4.88927
869 1 1 10.2636 0.976469 3.38691
417 1 1 8.81431 2.22199 5.52492
26 1 1 12.7572 1.46972 5.33342
821 1 1 11.2359 0.890786 3.81592
1540 1 1 12.5231 1.88456 2.36279
1187 1 1 14.6067 1.0741 3.34505
151 1 1 15.1228 1.82714 2.91668
1590 1 1 14.3189 17.8018 4.23576
1143 1 1 14.8913 1.35839 4.64371
766 1 1 15.7058 18.7182 3.58914
795 1 1 18.7052 1.01582 3.15408
899 1 1 1.72615 2.66471 2.71893
1638 1 1 2.46872 1.96564 4.99844
47 1 1 2.42424 2.08764 3.453
1210 1 1 5.48474 1.11342 2.92104
503 1 1 3.33299 2.12301 4.14943
1216 1 1 3.14886 3.39708 4.19655
888 1 1 0.631039 1.62955 4.40928
889 1 1 4.75845 2.10192 3.11769
7607 1 1 4.27849 2.76974 2.47727
7298 1 1 5.09658 2.43665 3.97916
504 1 1 8.90439 0.671966 2.78882
17 1 1 8.87905 2.27592 2.08804
937 1 1 7.73193 3.35435 3.10667
7626 1 1 10.034 3.00571 4.42806
7619 1 1 11.5417 2.23705 3.87935
838 1 1 10.0873 2.44914 1.31977
500 1 1 11.1134 4.59661 3.91239
427 1 1 13.4296 2.0151 4.57229
465 1 1 14.1268 1.04455 5.5731
912 1 1 14.3963 3.09452 4.51164
1223 1 1 15.0954 3.16959 3.34289
800 1 1 16.2663 1.52988 2.62369
112 1 1 18.5872 2.66399 5.09608
35 1 1 2.00418 18.7199 1.65023
2071 1 1 16.8181 4.43502 3.43917
1964 1 1 16.1136 2.62731 3.36522
1644 1 1 0.329861 3.73604 5.08922
488 1 1 1.85424 3.74684 0.524869
450 1 1 1.32176 2.40268 3.85062
884 1 1 0.620882 4.41664 4.0527
403 1 1 2.09825 3.56139 3.14981
1242 1 1 2.55832 4.26172 4.23068
767 1 1 3.13142 4.02825 3.23688
89 1 1 5.45568 2.91075 3.03297
1299 1 1 3.70003 5.5565 4.42342
1206 1 1 6.97892 4.0024 3.61838
2150 1 1 9.04295 3.88903 4.88766
217 1 1 9.76737 3.8639 3.78073
971 1 1 6.0695 2.37348 3.54949
470 1 1 12.5688 4.57626 4.41856
876 1 1 10.9733 5.51828 2.78611
1338 1 1 11.928 3.43424 3.62785
1597 1 1 14.2996 3.76133 3.43563
495 1 1 14.6459 2.7482 2.31353
910 1 1 16.0217 3.73924 4.43665
515 1 1 14.8833 4.50718 3.00965
1265 1 1 14.819 3.51635 5.40307
156 1 1 15.9356 4.85744 3.34456
119 1 1 14.839 4.31334 4.5269
1197 1 1 1.07751 4.78988 5.04181
1717 1 1 18.3622 4.46747 2.46961
603 1 1 2.4906 4.92007 3.30808
848 1 1 1.63385 5.57402 3.36835
483 1 1 1.37424 4.25796 3.05958
7524 1 1 2.81495 6.05827 3.84486
887 1 1 5.90833 5.62937 3.28913
765 1 1 6.51534 3.26412 2.79708
14 1 1 7.1814 5.19255 4.35956
1181 1 1 7.77743 4.56484 5.10718
1769 1 1 6.28933 4.34987 4.44376
1331 1 1 8.24626 5.43317 4.57846
1308 1 1 8.16322 5.18621 2.79468
553 1 1 10.0346 3.28228 2.04225
938 1 1 11.0713 6.44745 2.22856
1413 1 1 12.1459 6.71538 3.31405
588 1 1 11.9539 4.7334 3.2604
1307 1 1 13.1106 4.40301 3.37584
2232 1 1 14.0286 5.05997 3.25943
872 1 1 14.6749 5.5936 4.89449
1033 1 1 15.0904 8.46568 3.44375
801 1 1 16.7921 5.48777 2.39386
1237 1 1 0.554447 4.71223 1.97326
1759 1 1 16.8656 5.55384 3.63601
1318 1 1 17.6334 6.59637 2.93802
1442 1 1 0.921476 6.15982 5.04632
525 1 1 0.0971955 4.78605 3.18226
523 1 1 1.14865 4.20778 1.24177
1334 1 1 3.15493 6.46376 2.67038
1774 1 1 4.6315 5.12938 3.71477
1781 1 1 6.06875 7.36413 2.84327
10 1 1 6.13909 6.39367 2.45269
611 1 1 8.05849 4.51882 3.75416
898 1 1 7.90035 5.91253 3.60025
1066 1 1 9.05237 5.04244 3.90415
1333 1 1 8.91351 5.91677 3.21795
147 1 1 10.6467 6.50933 3.37803
1463 1 1 12.6657 6.68554 2.27155
509 1 1 15.0625 6.05393 3.53729
1438 1 1 13.9222 5.87798 2.70852
134 1 1 15.5893 7.36332 3.91504
1441 1 1 14.4616 6.95642 2.92154
1711 1 1 14.7152 7.87966 5.46922
1387 1 1 13.3493 6.45955 3.42227
2269 1 1 15.5651 7.00946 2.70223
7641 1 1 0.781399 6.22827 2.23228
1443 1 1 18.5876 5.98522 2.75827
1488 1 1 18.5302 6.95516 2.31331
489 1 1 1.45802 6.38922 4.08516
131 1 1 1.8389 9.45696 4.49793
2177 1 1 5.19557 7.97 2.81726
926 1 1 5.42624 7.92639 1.71105
1296 1 1 7.06761 7.00456 2.58885
1381 1 1 7.8992 7.54833 3.3998
1727 1 1 7.77961 7.36134 1.98383
130 1 1 8.03275 6.63457 2.86627
587 1 1 8.79509 7.64198 2.90341
2065 1 1 9.1858 9.17066 3.05332
498 1 1 11.008 7.65268 3.3441
1714 1 1 12.9506 8.15331 2.63673
606 1 1 12.3308 8.09272 4.72029
2153 1 1 13.4413 7.25778 2.64402
1715 1 1 12.7609 6.88048 4.25733
593 1 1 14.629 10.7149 3.37043
594 1 1 16.404 7.73585 3.38486
7721 1 1 17.5593 7.60587 2.93102
960 1 1 16.6431 8.35128 5.00706
560 1 1 0.438138 5.99695 3.55336
242 1 1 1.41246 7.6384 4.24557
1034 1 1 0.534828 6.95081 4.27937
1322 1 1 2.69327 10.957 5.10909
1405 1 1 1.13757 10.3138 4.63222
998 1 1 3.39938 9.80653 4.04737
1053 1 1 3.50435 9.11381 1.72235
1724 1 1 3.94193 9.44039 2.5556
1041 1 1 4.51968 7.35705 2.09738
1049 1 1 6.01117 8.50681 4.84598
1085 1 1 6.58502 8.26838 2.78836
536 1 1 6.82911 9.92924 3.08499
1061 1 1 8.4527 10.5687 4.98824
586 1 1 8.14816 9.29327 3.62212
7827 1 1 7.98581 9.60418 2.50707
1020 1 1 9.85278 10.4398 3.41379
985 1 1 10.8894 9.84998 4.13331
303 1 1 14.5724 9.19546 2.9934
1395 1 1 13.9332 9.81693 3.83009
1480 1 1 13.083 11.0139 5.24987
914 1 1 14.7657 9.89255 5.2382
311 1 1 16.9342 8.61606 3.86164
996 1 1 16.676 9.93521 3.23413
1757 1 1 15.5857 9.76736 3.19488
1403 1 1 17.2641 8.89641 2.93809
882 1 1 17.3338 10.1745 4.48649
7368 1 1 0.457817 12.1013 3.87322
315 1 1 2.6492 10.6561 3.1303
7888 1 1 3.5085 13.5446 3.73145
531 1 1 4.54447 9.53733 3.63171
1163 1 1 4.60324 11.7081 3.84631
1532 1 1 5.85309 10.3915 2.78984
1051 1 1 5.79617 9.42159 3.33327
1376 1 1 5.98858 11.833 2.81584
1002 1 1 7.4475 11.136 5.11777
659 1 1 7.08773 12.2723 3.99882
7541 1 1 7.33743 11.004 2.89917
1050 1 1 8.83009 10.2711 2.67933
615 1 1 9.34276 11.2025 4.68666
7912 1 1 11.7207 10.7806 1.13527
1790 1 1 11.583 11.4854 3.59417
1430 1 1 11.9301 9.44824 2.80444
1718 1 1 12.2573 10.758 3.24914
1512 1 1 11.4165 13.5727 5.6787
628 1 1 12.857 11.733 3.16649
2244 1 1 13.6292 11.696 4.71208
967 1 1 15.5766 11.963 4.37864
1080 1 1 14.7045 11.7863 4.92706
240 1 1 14.6343 13.0237 3.53565
1838 1 1 17.1831 11.2623 4.1095
2084 1 1 0.184044 11.1177 4.69644
1287 1 1 3.48357 10.9351 4.32424
288 1 1 2.53084 12.6949 3.49227
1012 1 1 1.64951 11.3596 3.46843
654 1 1 2.55844 11.7606 4.38612
1081 1 1 4.42955 13.2846 2.32776
627 1 1 5.14202 12.2422 3.21242
621 1 1 7.68922 13.1726 3.42913
333 1 1 10.5008 12.6501 1.53469
1182 1 1 10.8422 11.9514 2.59349
614 1 1 12.6373 12.5579 3.67498
1111 1 1 10.6256 11.7727 4.76151
663 1 1 13.9292 14.9613 2.86188
672 1 1 14.0153 11.5393 3.73558
600 1 1 13.6314 12.9289 4.31093
747 1 1 14.9268 13.2906 4.63218
1825 1 1 13.9387 13.8167 3.38114
1475 1 1 18.6655 10.0105 2.74906
1368 1 1 15.4606 12.7388 2.47441
968 1 1 18.6331 12.6795 3.03698
1439 1 1 17.5424 13.1818 2.48282
755 1 1 1.03126 15.7712 2.52442
1156 1 1 2.61662 15.6809 5.13751
1449 1 1 2.88786 15.3896 3.94863
251 1 1 1.23492 13.3976 3.83141
339 1 1 3.6532 12.1133 4.17633
7900 1 1 4.13443 13.4476 4.61115
1010 1 1 5.4651 13.9133 2.17267
7975 1 1 6.43838 13.4647 2.87213
1103 1 1 10.3195 13.4273 2.95607
1942 1 1 12.6908 12.0534 1.43716
1069 1 1 13.7645 12.795 1.00332
305 1 1 13.7471 12.1126 6.02969
678 1 1 14.5375 14.374 4.14736
608 1 1 15.3531 14.1613 3.37326
1596 1 1 16.29 12.5714 4.92037
2238 1 1 16.5069 13.8648 3.57999
1149 1 1 17.4738 14.5497 3.76475
2037 1 1 15.8463 14.4552 4.43572
769 1 1 17.4499 14.5592 4.99901
1406 1 1 0.89038 14.8057 3.17548
1561 1 1 16.9185 15.6463 3.21168
724 1 1 0.441019 13.6848 3.0651
1954 1 1 18.4571 15.2501 2.71455
1550 1 1 3.68264 14.8607 3.45143
1487 1 1 1.13386 14.4338 4.79902
350 1 1 1.90567 15.5715 3.66305
325 1 1 2.72841 17.547 3.26996
1128 1 1 3.80358 14.1491 2.01489
773 1 1 6.31708 14.5608 2.80473
1131 1 1 5.71242 17.2082 2.90569
7856 1 1 8.09166 16.0659 4.20526
1530 1 1 7.37709 15.5609 3.33419
253 1 1 6.2389 15.6136 3.6947
2343 1 1 7.31172 14.5454 3.49047
7945 1 1 10.5359 15.0582 3.75383
1070 1 1 8.99769 14.472 2.8974
1170 1 1 10.0552 16.3414 3.51416
1939 1 1 10.6105 14.5435 2.81068
1226 1 1 11.1247 16.5414 2.04498
1501 1 1 10.5441 15.4857 2.14954
1100 1 1 10.8296 14.3376 1.89598
317 1 1 11.2391 15.9764 2.87343
1537 1 1 14.054 16.1091 3.21164
1153 1 1 12.4849 13.7114 3.31347
1427 1 1 16.119 15.8243 2.29607
1469 1 1 15.9159 16.3483 3.7863
790 1 1 15.068 16.4133 4.27723
435 1 1 17.3324 15.7925 4.18895
394 1 1 18.1137 17.6105 3.63462
1165 1 1 0.354992 16.3283 3.29382
7197 1 1 0.806452 17.1308 2.23049
1514 1 1 18.2734 17.5976 5.10236
1481 1 1 1.7332 17.309 2.65814
7573 1 1 6.66916 16.7842 3.41423
2378 1 1 5.26187 17.3709 4.08437
605 1 1 9.06493 17.2799 2.08833
323 1 1 6.2028 18.399 3.07044
1133 1 1 9.66428 15.2994 3.13782
260 1 1 8.63504 17.2114 4.75026
1886 1 1 9.41628 15.313 4.10257
698 1 1 10.6555 17.3124 3.67282
1114 1 1 11.4694 16.7441 4.35305
1107 1 1 12.9594 15.1863 2.08011
7515 1 1 15.4295 15.4749 2.94707
1157 1 1 13.0578 16.2173 4.72509
1539 1 1 14.0951 16.5896 4.1114
7125 1 1 15.5631 18.0838 4.52707
437 1 1 16.2768 17.2407 4.21339
312 1 1 18.3922 16.4613 4.1166
443 1 1 17.5911 18.2967 2.89521
157 1 1 17.8182 0.837695 4.16371
1233 1 1 0.473674 18.7606 2.60174
778 1 1 1.08694 1.29981 3.30206
843 1 1 3.30738 18.5805 5.18684
772 1 1 3.05197 16.7299 5.39164
1211 1 1 2.45506 18.6542 2.82415
777 1 1 4.53081 17.6762 3.35443
1134 1 1 7.3447 18.7281 4.15316
855 1 1 8.04316 0.285543 3.28907
7901 1 1 7.07735 18.4141 2.21552
7531 1 1 8.33454 16.8503 3.21927
410 1 1 8.39326 18.149 3.88507
1708 1 1 9.8586 17.7533 4.97866
780 1 1 13.187 17.8031 2.98861
11 1 1 13.5013 16.6214 2.23953
1906 1 1 12.7879 14.674 3.74916
20 1 1 12.0426 18.8 3.6451
1138 1 1 13.6395 0.572745 2.51888
7984 1 1 13.336 18.2391 4.06671
823 1 1 13.0178 15.9658 3.47584
389 1 1 12.9768 17.1771 4.44787
798 1 1 13.9892 17.2031 3.1556
7155 1 1 14.2255 18.3136 3.00992
1110 1 1 14.6559 0.413464 4.88262
7887 1 1 0.543621 17.7599 4.22001
409 1 1 16.7611 18.4135 4.61409
1200 1 1 0.320535 2.01095 3.28311
1293 1 1 0.622798 0.464403 6.18151
846 1 1 0.344589 18.0938 6.42395
1600 1 1 3.40071 1.58522 5.11491
819 1 1 4.1591 0.513523 4.62838
1582 1 1 7.3361 1.8274 4.29901