ITEM: TIMESTEP
2500
ITEM: NUMBER OF ATOMS
8000
ITEM: BOX BOUNDS pp pp pp
0.0000000000000000e+00 1.8820720577620570e+01
0.0000000000000000e+00 1.8820720577620570e+01
0.0000000000000000e+00 3.7641441155241139e+01
ITEM: ATOMS id mass type x y z
761 1 1 1.20372 1.58882 0.168836
7640 1 1 18.4654 1.86354 37.4992
7651 1 1 2.7265 18.2883 1.4053
732 1 1 3.36432 18.5204 0.507975
408 1 1 1.82787 0.745246 0.422743
1301 1 1 5.26768 0.388091 1.73504
770 1 1 4.65139 17.4695 1.60001
7701 1 1 4.91627 0.403138 36.2526
377 1 1 9.88782 0.00214287 1.40381
7620 1 1 6.22584 18.4633 36.9822
17 1 1 6.59578 1.28717 1.85676
57 1 1 9.87757 0.147019 37.6254
20 1 1 10.2024 0.827392 0.762337
7984 1 1 11.0803 0.208703 2.26955
26 1 1 13.1107 0.938567 1.3111
746 1 1 14.0519 0.261639 1.41513
511 1 1 16.6288 0.196491 0.958047
835 1 1 16.8953 1.26491 1.08569
324 1 1 17.4739 0.425193 1.39002
798 1 1 14.746 1.0183 1.93053
762 1 1 1.57758 2.48087 36.9524
7639 1 1 3.20932 3.79962 35.718
50 1 1 3.63237 0.382623 36.969
41 1 1 4.5381 1.14096 1.66719
37 1 1 4.14571 0.930529 0.332862
6 1 1 4.86727 1.62551 0.353563
376 1 1 5.72702 2.24889 0.38323
7611 1 1 7.29579 2.67406 2.69283
765 1 1 6.51972 3.03826 0.393947
380 1 1 5.3982 2.85161 2.68564
93 1 1 7.66265 1.20252 1.10576
7698 1 1 7.81037 3.14562 0.445456
780 1 1 9.83418 1.62266 0.0169305
28 1 1 10.6966 1.3321 37.1891
7627 1 1 10.6077 1.79678 1.28752
422 1 1 9.98625 2.14415 2.63413
425 1 1 10.5816 1.72863 36.332
65 1 1 12.5667 2.26782 1.8161
387 1 1 11.8596 2.65117 0.241042
7626 1 1 11.1891 1.71528 2.32127
79 1 1 14.2545 2.55437 0.376444
786 1 1 15.8887 3.21784 1.13972
7636 1 1 12.9869 2.57373 0.83177
7986 1 1 14.5911 4.56043 1.12498
1196 1 1 14.1857 3.62408 2.01926
109 1 1 16.1003 1.86856 37.4548
439 1 1 18.0671 1.18595 0.803015
402 1 1 17.3812 2.77691 37.2195
77 1 1 17.1082 1.63566 37.5937
479 1 1 18.6033 2.30343 1.11454
441 1 1 1.10269 5.79597 1.84299
806 1 1 0.924909 3.63924 0.804288
127 1 1 1.43999 5.72089 37.6325
885 1 1 2.51836 3.71746 0.59082
368 1 1 5.29479 2.65983 36.3765
96 1 1 4.25552 2.83303 36.4447
533 1 1 4.27595 3.03621 0.216814
137 1 1 5.13934 5.77346 37.271
143 1 1 8.39458 1.84844 0.100288
461 1 1 10.1193 4.38418 1.52665
7982 1 1 11.1704 2.78486 36.5096
149 1 1 11.9572 3.74267 37.3462
516 1 1 12.057 1.93424 35.7757
7591 1 1 12.5857 6.58457 37.0252
476 1 1 13.4466 5.21588 0.50691
506 1 1 13.5403 3.57036 0.505798
7996 1 1 17.1774 3.81209 37.3291
117 1 1 16.7892 6.27716 0.623431
7603 1 1 0.30282 4.30668 0.180119
518 1 1 0.445326 3.51249 37.1741
7359 1 1 17.8814 5.06625 0.848061
481 1 1 18.7149 7.17247 2.1039
808 1 1 18.6302 5.35519 1.41024
49 1 1 3.46991 5.87418 3.42775
573 1 1 3.65473 4.42852 1.02729
169 1 1 2.83131 6.324 36.2403
456 1 1 4.39378 4.80916 0.045218
7697 1 1 3.8832 4.49434 2.1747
7723 1 1 6.57426 5.36983 37.3535
534 1 1 8.154 6.12827 1.64147
135 1 1 8.0639 4.75652 36.6564
934 1 1 8.81073 5.31163 1.63186
219 1 1 8.4804 5.20808 0.0227134
1309 1 1 9.88403 5.3492 1.21468
7423 1 1 9.55187 6.18153 1.82515
7672 1 1 8.88674 4.61131 35.7002
581 1 1 11.8144 5.53097 0.895562
538 1 1 12.4874 4.75137 0.437075
547 1 1 12.9502 4.00581 36.4494
72 1 1 14.4329 5.39113 0.382829
7756 1 1 15.2876 3.68687 1.89055
80 1 1 16.094 5.56632 1.09734
110 1 1 14.7505 6.43937 0.425552
760 1 1 17.9766 4.17955 0.3388
559 1 1 17.4908 5.83192 1.49126
159 1 1 18.5088 6.63274 36.9586
125 1 1 0.376047 7.82554 37.3133
7729 1 1 2.68481 5.1056 37.2429
44 1 1 2.15148 6.2465 37.2447
131 1 1 4.15869 6.58915 2.30443
7700 1 1 5.14949 4.87804 1.89567
94 1 1 6.04015 6.90954 37.2682
7736 1 1 7.24416 7.24106 0.17733
7699 1 1 7.65413 6.88781 1.06094
217 1 1 9.58447 7.11538 2.05636
142 1 1 8.41199 7.25484 0.286018
145 1 1 10.0018 5.02651 0.0944507
583 1 1 10.9051 6.49572 36.6654
100 1 1 12.261 5.56232 37.4643
502 1 1 11.9327 6.71864 0.114874
177 1 1 12.1307 6.60824 1.10467
150 1 1 13.2739 5.17077 1.76483
106 1 1 11.8832 4.87015 36.7806
231 1 1 15.0084 6.07492 1.35405
510 1 1 18.2141 7.09859 0.27301
7798 1 1 14.442 6.97689 1.35286
7716 1 1 17.6487 7.2954 36.8973
153 1 1 1.9741 7.89266 1.69576
195 1 1 0.558223 7.1742 0.843393
526 1 1 3.34394 8.29365 36.9066
1323 1 1 1.13659 8.19055 0.452267
524 1 1 3.24214 7.17157 37.4246
930 1 1 4.43601 5.92569 0.413604
529 1 1 2.30377 6.19073 0.651179
1401 1 1 5.47105 8.58235 1.73148
138 1 1 6.43364 8.39868 0.614556
176 1 1 5.46333 7.40637 0.812
1461 1 1 9.09975 8.22593 0.411195
527 1 1 6.68603 9.37356 37.5909
178 1 1 8.82657 7.03208 1.39925
973 1 1 10.1419 8.08489 0.129677
942 1 1 11.7874 7.56519 1.98858
498 1 1 10.6265 7.62799 1.22079
224 1 1 10.7304 7.04749 0.365823
633 1 1 11.7595 7.84322 0.356757
1067 1 1 12.1599 8.88606 37.1921
187 1 1 13.3774 8.23933 0.0920445
989 1 1 12.7159 7.32499 0.449743
557 1 1 16.4702 6.59794 36.9683
552 1 1 14.6451 8.05914 2.00637
107 1 1 15.6558 7.59266 -0.00927999
7748 1 1 13.2191 6.33058 1.23826
594 1 1 15.7575 6.85289 0.728958
7758 1 1 18.1679 8.17306 1.4735
593 1 1 16.1617 6.48293 1.77931
238 1 1 17.0498 8.52515 0.371355
7757 1 1 0.422955 9.12529 36.5853
4 1 1 18.3057 9.28099 1.32038
7769 1 1 2.16953 9.17136 37.4617
925 1 1 3.94759 8.98426 0.879271
7808 1 1 4.79563 9.8783 1.06109
7880 1 1 1.65891 11.6198 0.726168
167 1 1 3.82502 10.6073 35.7726
7734 1 1 7.75772 11.148 0.418084
216 1 1 6.59748 11.6431 1.01836
7772 1 1 6.42287 8.06575 37.205
218 1 1 11.1368 8.75761 0.281856
7788 1 1 7.96363 9.97567 0.501467
262 1 1 10.4052 9.54318 -0.0283081
1109 1 1 9.60269 10.2867 37.2376
585 1 1 14.8852 7.91742 0.845998
578 1 1 11.9511 8.56805 1.16413
665 1 1 12.2945 9.68699 0.565696
589 1 1 14.1358 7.39809 0.420745
7432 1 1 13.3536 9.91269 37.6213
230 1 1 15.3924 9.5506 1.39811
634 1 1 15.7132 8.2333 1.55156
190 1 1 16.6966 7.42541 1.07525
564 1 1 18.3174 10.5849 2.34618
186 1 1 16.0529 8.3088 0.507217
124 1 1 0.725107 9.4364 0.349201
7796 1 1 14.7275 9.16141 0.716581
7714 1 1 16.5109 9.01214 1.56142
207 1 1 3.66215 12.948 0.202353
7804 1 1 0.14414 11.6535 2.35195
1003 1 1 2.91786 11.4456 0.765254
163 1 1 6.751 11.4509 37.5888
645 1 1 2.99308 10.0439 2.60533
652 1 1 5.98516 10.9064 0.667139
290 1 1 5.69608 9.84701 0.431235
613 1 1 4.40442 10.9584 0.917398
1006 1 1 6.27267 11.4719 36.6717
1010 1 1 5.06447 11.5277 0.464896
256 1 1 8.51948 11.6409 1.12916
7827 1 1 12.1042 9.69689 1.94209
580 1 1 8.40556 9.82163 3.50039
7780 1 1 9.30869 10.8806 1.05146
227 1 1 10.8808 9.89964 36.4868
7784 1 1 11.783 12.4879 2.52481
308 1 1 12.9206 10.7959 0.836288
982 1 1 13.5911 12.8463 0.805836
626 1 1 13.7601 10.3962 1.35563
7428 1 1 12.417 11.6628 0.188195
200 1 1 17.3586 10.0055 2.05223
233 1 1 1.86318 11.4219 1.94312
7879 1 1 0.472697 10.8831 1.45688
7835 1 1 2.00179 12.6357 1.38889
204 1 1 1.91938 13.6434 -0.0305753
962 1 1 18.7884 12.8043 0.352445
7968 1 1 1.53125 12.6009 37.1176
337 1 1 5.27797 12.5001 2.18957
7856 1 1 8.07036 12.627 0.573879
7811 1 1 7.64393 12.7698 36.8099
7541 1 1 9.85356 12.9962 2.66221
261 1 1 10.6156 12.9773 1.41074
7468 1 1 10.0713 11.3685 37.5933
705 1 1 11.1648 14.3693 0.989981
7829 1 1 12.6077 13.5164 1.71093
301 1 1 11.5638 10.9198 36.6942
7868 1 1 14.0159 13.2549 37.4099
268 1 1 14.2554 12.0637 0.540308
595 1 1 15.0318 12.9529 36.8625
639 1 1 16.756 13.8779 0.308409
1040 1 1 16.9843 13.5304 1.25134
393 1 1 18.5375 10.5285 0.453548
7924 1 1 18.7104 13.8307 1.03435
397 1 1 0.105946 14.9959 1.80293
7442 1 1 0.651299 13.5154 2.0586
358 1 1 3.22151 13.4036 1.5681
7525 1 1 1.34287 13.0718 0.626936
730 1 1 3.67288 13.6884 36.1873
288 1 1 4.23944 12.9384 2.2071
725 1 1 4.57981 12.5932 37.5342
1532 1 1 6.33844 13.7394 1.98288
333 1 1 8.61505 10.8351 2.07386
344 1 1 7.29452 14.1791 0.19742
697 1 1 8.86283 13.2039 37.2289
660 1 1 9.75289 13.1819 0.338915
264 1 1 9.32802 14.8001 37.1759
655 1 1 11.5872 15.3055 1.47479
257 1 1 11.628 12.9915 1.48046
7864 1 1 11.3431 14.2325 2.85251
379 1 1 12.878 14.0031 0.717982
747 1 1 13.8692 14.5313 1.4531
676 1 1 14.0415 14.0827 0.413888
666 1 1 13.4467 14.9956 37.5578
675 1 1 12.4889 15.6939 37.2053
7876 1 1 15.8152 14.5244 35.5033
278 1 1 14.7962 15.1122 1.84626
7440 1 1 15.9485 14.722 37.3732
758 1 1 0.627041 15.6555 1.11699
7888 1 1 2.40727 14.131 1.06123
776 1 1 2.44705 15.228 36.7969
300 1 1 4.62725 14.177 37.4935
370 1 1 4.88665 15.0854 37.593
721 1 1 4.45923 16.6603 1.06272
1173 1 1 4.61491 14.3487 0.864566
1573 1 1 6.73164 13.7218 0.914483
7901 1 1 6.68977 15.8702 1.60984
7937 1 1 7.85974 15.6296 1.46647
259 1 1 9.36808 14.2073 0.735786
700 1 1 8.4356 14.4483 1.45208
21 1 1 9.11533 16.1332 36.3835
373 1 1 8.9407 15.2215 0.878117
391 1 1 12.1674 16.6657 0.32824
258 1 1 10.086 15.9703 36.8687
1145 1 1 10.5633 15.0889 37.3807
7543 1 1 11.9055 15.0065 0.0987465
7914 1 1 13.486 16.575 1.40255
706 1 1 13.5062 15.5212 0.83509
670 1 1 15.2921 15.2778 0.616244
745 1 1 14.2174 15.7669 3.45754
305 1 1 15.4351 13.4797 1.49777
7561 1 1 17.2245 14.7463 0.308107
793 1 1 18.2239 15.4373 0.766043
7635 1 1 0.926979 17.7343 0.383551
753 1 1 18.3123 17.1164 1.97961
438 1 1 0.636295 16.6775 36.9603
7887 1 1 1.99267 17.2983 0.308581
399 1 1 1.577 16.1845 0.670742
1125 1 1 3.24962 15.9709 1.37414
327 1 1 3.27727 15.9782 37.4878
7573 1 1 5.21708 15.9015 1.70017
85 1 1 4.55944 16.1063 37.6075
7971 1 1 3.68151 17.1365 1.60255
7615 1 1 6.28252 16.1412 2.70424
340 1 1 6.6525 17.1274 3.01744
51 1 1 7.89782 16.3101 0.109713
385 1 1 8.84477 18.806 0.605296
388 1 1 9.63085 17.3227 36.9147
381 1 1 9.25724 17.4193 1.37724
304 1 1 10.5452 17.0969 37.1728
7983 1 1 11.3571 16.008 37.3702
784 1 1 13.2584 17.7911 0.377529
792 1 1 12.8315 18.7059 2.13701
353 1 1 13.9894 16.2981 2.68277
752 1 1 16.8733 17.048 0.554517
6720 1 1 15.8672 17.4297 1.97377
7478 1 1 14.1464 17.6719 1.45523
789 1 1 15.8895 18.5637 1.85766
795 1 1 17.2465 17.2307 2.30692
40 1 1 17.7879 0.316248 3.3499
319 1 1 0.734049 18.8253 37.5688
754 1 1 18.7554 16.6285 0.845967
7608 1 1 0.874785 0.959465 0.950136
731 1 1 1.86044 18.1534 37.2627
405 1 1 3.25306 2.09842 37.224
321 1 1 2.25878 1.64722 1.30547
363 1 1 4.7514 17.4067 0.181605
7215 1 1 4.44877 18.5987 0.88527
7610 1 1 6.29094 18.5556 2.901
60 1 1 7.07525 17.389 0.338251
29 1 1 6.17383 16.3772 0.889047
744 1 1 9.67299 0.347503 3.56076
1144 1 1 8.28724 0.172017 37.359
67 1 1 9.21767 17.9534 0.414116
824 1 1 12.1198 0.0571107 2.81104
785 1 1 10.6679 17.8597 1.53032
829 1 1 12.6234 18.6293 37.4546
389 1 1 11.4095 17.3473 37.631
874 1 1 14.1774 0.948493 0.418704
429 1 1 12.1442 0.795119 1.20913
396 1 1 15.012 0.416075 0.714906
356 1 1 17.5862 18.5524 -0.035284
33 1 1 17.9955 18.0318 2.61947
477 1 1 17.8057 0.505519 36.6101
437 1 1 18.3575 17.4138 3.4471
47 1 1 2.17597 18.5346 2.92834
12 1 1 2.14826 0.49988 1.41106
362 1 1 18.2098 0.100481 2.2185
889 1 1 4.15264 1.58629 2.50209
409 1 1 3.78251 18.2034 3.98415
504 1 1 6.24306 2.15099 2.54108
336 1 1 4.25553 0.0747144 2.95847
1122 1 1 4.99204 0.433207 3.98774
7616 1 1 6.03327 2.39067 1.50885
774 1 1 6.97529 0.0476692 1.98498
779 1 1 7.13496 17.5963 1.47807
416 1 1 7.80906 0.129286 0.998173
818 1 1 10.7753 0.0371897 3.53372
97 1 1 11.7082 1.57901 3.96852
820 1 1 10.3492 1.04589 2.03052
63 1 1 11.0511 17.6413 3.17778
71 1 1 11.8788 0.897904 2.27323
7632 1 1 12.443 2.41567 3.72262
827 1 1 12.6261 0.85258 3.37213
431 1 1 14.3508 1.54931 1.21133
834 1 1 17.0563 2.3458 1.1029
949 1 1 14.6183 18.4677 2.04031
833 1 1 17.0852 1.8058 2.05322
436 1 1 1.00491 18.4334 3.33045
729 1 1 0.49951 2.61097 0.277277
852 1 1 1.58052 3.68066 1.54086
491 1 1 5.15589 1.9189 2.46541
7628 1 1 8.75341 -0.0330687 1.74826
14 1 1 6.30381 3.3505 1.60063
417 1 1 8.59062 18.6625 2.79048
15 1 1 8.29961 2.38048 1.55858
937 1 1 8.93495 1.39392 1.04487
426 1 1 11.0567 0.990486 3.04991
876 1 1 13.0835 1.9503 2.85357
838 1 1 13.4333 1.68142 -0.0514821
68 1 1 13.3147 4.17715 2.12448
517 1 1 16.5317 4.30064 0.74703
480 1 1 16.2626 2.02597 3.67899
474 1 1 16.6772 3.10612 2.84607
917 1 1 18.7246 1.52597 1.67887
881 1 1 18.3264 4.36986 1.39694
879 1 1 18.0756 3.10651 0.352844
440 1 1 1.8654 5.37666 1.2461
933 1 1 3.99017 5.65746 37.0554
89 1 1 5.05401 2.24748 1.20362
497 1 1 6.24593 5.51733 1.05182
935 1 1 3.94544 3.29159 1.38798
900 1 1 5.44675 3.39937 0.31837
98 1 1 5.87076 4.58757 3.34341
7 1 1 8.35567 3.02304 2.64699
494 1 1 8.20842 4.38244 0.684446
102 1 1 8.36317 4.39387 2.07741
500 1 1 9.86336 2.56945 1.60794
897 1 1 10.1233 3.08831 0.282643
470 1 1 10.8073 2.97038 2.25213
505 1 1 13.7184 4.49357 37.0879
508 1 1 10.9658 3.72402 0.302445
869 1 1 11.8909 2.99588 2.32497
909 1 1 12.2734 4.70342 1.55743
1194 1 1 13.7134 5.36853 4.19695
39 1 1 14.6706 3.54789 0.971805
151 1 1 14.0458 1.54012 2.51395
515 1 1 15.4005 5.92543 2.39465
155 1 1 17.1227 3.75809 2.22661
1713 1 1 15.7708 2.94552 3.24941
115 1 1 17.9243 2.47369 1.9758
478 1 1 17.2501 3.40207 1.045
1358 1 1 18.3489 3.30759 1.50453
519 1 1 17.5032 4.63746 2.73791
523 1 1 18.5723 4.9274 2.39038
82 1 1 0.565841 4.45693 1.75336
88 1 1 0.913485 6.76618 1.91697
10 1 1 3.45961 6.17643 1.59777
1290 1 1 2.88106 5.33801 1.72107
899 1 1 0.668707 3.43191 2.57234
53 1 1 4.86263 5.0511 2.95672
575 1 1 7.44782 5.30878 0.619652
179 1 1 7.0141 5.23927 3.02653
1337 1 1 5.41921 3.83262 1.66959
945 1 1 7.75043 3.62643 1.57877
1019 1 1 7.25675 4.5057 3.80515
134 1 1 10.8848 5.44867 2.83513
139 1 1 11.2066 4.56426 1.90447
908 1 1 10.9373 3.45466 1.31237
462 1 1 10.38 5.94671 0.240136
473 1 1 12.4496 4.24152 2.62042
556 1 1 11.7185 4.02844 0.836248
1270 1 1 10.8896 4.66315 0.801569
554 1 1 15.5444 4.74115 1.67403
546 1 1 14.4514 7.17857 3.60481
1316 1 1 16.74 4.89233 3.68456
120 1 1 16.3152 5.23775 2.38245
7718 1 1 1.8514 7.1833 2.58524
446 1 1 3.48184 7.05621 0.957252
1282 1 1 2.25947 10.2684 3.43966
92 1 1 3.74273 7.94833 0.357091
1327 1 1 6.98077 6.08794 1.93083
570 1 1 8.13191 6.1545 0.193009
7735 1 1 6.8449 6.15373 0.3993
171 1 1 6.26394 7.35385 2.56744
460 1 1 9.87273 5.30372 2.68913
91 1 1 8.4483 6.86679 2.87449
536 1 1 8.16911 8.46196 2.40677
1026 1 1 9.60141 7.52254 3.12927
1774 1 1 7.53116 5.19737 1.88675
7712 1 1 10.2975 6.4959 2.58979
7751 1 1 11.0142 8.58709 1.37962
588 1 1 11.863 4.98881 3.2957
146 1 1 14.0992 6.4314 2.22469
108 1 1 13.3937 7.71644 4.68696
113 1 1 15.6662 4.42851 2.80401
1000 1 1 15.106 6.8476 2.33637
1317 1 1 16.5731 6.5596 3.68028
196 1 1 15.8307 8.52728 2.73116
7721 1 1 17.9964 7.55248 2.76997
550 1 1 18.3673 6.51376 1.19277
444 1 1 2.4828 7.07167 1.28567
483 1 1 0.168429 6.17082 2.11044
202 1 1 2.26843 9.0858 1.84294
1366 1 1 2.05163 10.1767 2.2469
485 1 1 3.33975 8.24409 2.69992
974 1 1 2.38203 8.35963 5.48296
445 1 1 5.43861 7.06976 1.85344
532 1 1 5.86563 6.39865 1.1916
607 1 1 6.5686 7.03824 1.54974
970 1 1 7.37654 8.72704 0.445277
215 1 1 6.37805 9.66413 1.45972
7817 1 1 8.82684 9.70552 1.53016
983 1 1 9.39593 7.95622 1.41224
628 1 1 11.3127 8.69991 3.62053
1062 1 1 13.0404 8.59351 5.10707
140 1 1 10.5628 8.24929 2.42376
596 1 1 14.1516 9.01798 4.26267
1033 1 1 15.2362 6.53262 3.5279
591 1 1 14.8038 8.98206 2.85742
997 1 1 16.8061 7.6785 3.56833
7684 1 1 0.106136 7.8441 3.46236
191 1 1 18.6249 8.32818 2.52707
239 1 1 1.44796 10.4106 0.877495
1329 1 1 0.588896 7.98513 1.89454
1041 1 1 3.746 9.16456 3.43581
164 1 1 3.62439 9.32004 1.70337
637 1 1 2.49392 7.78939 0.144641
566 1 1 4.59873 10.554 2.4306
208 1 1 4.2223 9.43564 2.48645
932 1 1 5.39491 10.0967 3.85344
647 1 1 5.96171 10.5271 2.18328
611 1 1 4.16167 7.82696 1.40631
615 1 1 6.91638 10.7185 1.17372
180 1 1 9.12075 9.11754 2.66096
976 1 1 7.92771 10.2816 1.59701
579 1 1 8.80668 8.28813 3.44308
1020 1 1 10.6174 10.7854 3.28543
1023 1 1 13.1233 9.56405 2.03925
188 1 1 14.1726 9.31073 37.4987
632 1 1 12.6457 8.79622 4.16577
276 1 1 14.6798 10.2303 0.862066
958 1 1 16.0315 9.67118 3.78246
1802 1 1 18.0354 8.9747 2.99382
315 1 1 1.24527 10.1855 2.9847
357 1 1 2.27561 11.0932 2.90214
998 1 1 1.77907 10.8893 4.21152
567 1 1 5.312 10.7295 1.53356
7847 1 1 3.60106 12.4121 1.39143
687 1 1 5.84485 11.6026 1.94176
691 1 1 8.21899 12.7401 2.35351
574 1 1 6.21935 12.7124 1.31556
1061 1 1 7.39812 10.7765 3.39056
618 1 1 11.2183 9.8919 0.990275
651 1 1 8.82973 11.3117 3.31673
1063 1 1 11.1851 10.2443 37.492
1105 1 1 11.6409 8.55478 2.47124
269 1 1 12.1778 11.7122 2.23381
1031 1 1 12.5174 10.0126 3.11838
1076 1 1 12.5038 8.55189 2.90715
636 1 1 15.5652 10.7127 1.3724
600 1 1 15.2407 10.5894 4.09609
240 1 1 15.8149 11.8129 0.948295
7838 1 1 16.8775 11.4446 2.48279
677 1 1 17.8188 12.0952 1.70134
241 1 1 0.815565 10.018 2.04564
7841 1 1 2.91138 11.1368 2.01477
1048 1 1 2.79497 9.96721 1.50244
7928 1 1 3.15609 12.2253 2.36174
1050 1 1 5.34513 11.1124 2.9257
252 1 1 5.71277 12.7334 3.65985
7900 1 1 5.19305 13.8125 1.74804
339 1 1 5.82517 13.6344 3.0003
622 1 1 9.58556 11.9903 1.81657
614 1 1 11.0417 10.9167 2.35462
668 1 1 12.6115 13.7822 3.49183
7903 1 1 11.5294 10.966 1.18692
667 1 1 13.0886 10.6451 2.74353
1509 1 1 11.3811 11.624 3.14242
638 1 1 13.3697 11.7752 0.648842
592 1 1 15.1631 12.8786 2.30928
273 1 1 13.1895 12.6304 1.83118
277 1 1 14.1136 13.474 1.39188
271 1 1 14.3065 12.4247 2.02284
1078 1 1 16.3464 12.841 0.433572
281 1 1 18.3744 11.3743 1.06004
1035 1 1 18.393 13.0316 2.48165
7840 1 1 15.9486 12.0842 2.18296
7995 1 1 18.3876 13.9442 1.91862
1154 1 1 1.4432 14.0276 1.29694
7482 1 1 1.43417 13.937 2.52048
365 1 1 2.57795 13.0089 0.42486
685 1 1 1.85694 14.7841 1.89184
7921 1 1 2.08962 13.3155 2.07646
1081 1 1 4.32978 14.0576 2.56904
287 1 1 6.12422 15.0851 2.363
696 1 1 7.4769 14.4062 2.20453
341 1 1 8.32857 13.7068 0.552835
627 1 1 8.69896 13.8536 2.4413
740 1 1 7.82824 13.6305 1.7085
1098 1 1 7.01767 12.811 2.17227
254 1 1 11.0702 13.2789 2.40296
694 1 1 10.3229 14.1042 1.68324
1102 1 1 10.6916 12.1167 2.3725
1108 1 1 12.7767 13.0927 2.7417
7913 1 1 12.5987 14.7251 1.74346
1069 1 1 13.5637 11.7292 2.76074
674 1 1 14.8785 14.2103 1.02086
7925 1 1 16.2832 14.233 1.6805
7834 1 1 14.9297 13.1772 0.483438
317 1 1 15.2763 14.2416 2.12286
234 1 1 16.8482 14.3132 3.49208
435 1 1 17.1628 14.5706 2.40491
7844 1 1 17.5241 14.5742 1.33397
325 1 1 1.96371 14.7114 3.02523
757 1 1 0.473534 13.842 3.22499
1007 1 1 0.800339 15.609 2.18153
751 1 1 2.76308 15.1223 0.751751
1128 1 1 3.65617 14.5128 0.319461
330 1 1 4.25289 15.4666 1.93195
648 1 1 2.61709 14.2394 37.335
690 1 1 9.11864 16.4581 0.881355
342 1 1 6.02541 14.6747 1.321
658 1 1 10.9082 14.7845 2.1398
1506 1 1 10.2454 15.8666 3.5157
742 1 1 10.0972 17.3757 0.681866
662 1 1 10.4783 14.7575 3.31217
1142 1 1 11.0914 15.9774 2.38252
743 1 1 10.9872 16.0323 1.23301
298 1 1 12.1601 15.8941 2.56901
272 1 1 12.1631 14.7652 3.55141
306 1 1 15.0414 16.2205 1.74621
1146 1 1 14.7532 16.7262 3.13908
699 1 1 13.7761 15.4075 2.02888
709 1 1 16.5745 16.6765 1.79798
749 1 1 16.9446 15.7078 1.33777
713 1 1 17.1263 12.9683 4.20402
351 1 1 17.7642 15.3653 1.87972
312 1 1 18.4244 16.0763 2.13553
7870 1 1 17.2033 15.4591 3.23202
318 1 1 1.7201 17.7189 1.14801
1199 1 1 0.200765 16.7539 2.87939
404 1 1 2.15847 16.1066 1.64873
1529 1 1 2.86467 16.5588 2.50066
773 1 1 2.17978 16.7429 3.46282
771 1 1 4.02115 16.4336 2.395
1531 1 1 5.78924 15.6197 3.51017
1134 1 1 4.98248 16.1591 3.33596
343 1 1 8.37121 17.9169 1.63125
375 1 1 10.0492 16.3576 0.191348
1176 1 1 10.0874 14.9786 1.14128
704 1 1 8.78163 17.1071 3.74279
698 1 1 10.0577 16.6118 1.50117
346 1 1 11.3042 17.0792 1.10947
64 1 1 13.0515 16.561 2.58343
702 1 1 14.6328 17.4516 3.86268
1143 1 1 12.0799 17.9112 2.37115
1106 1 1 15.5012 0.189423 2.78188
394 1 1 16.1068 15.3871 1.90524
1158 1 1 16.7059 16.3012 2.93492
433 1 1 15.4302 17.9543 2.83301
728 1 1 16.4826 15.8545 4.34253
1149 1 1 18.4231 14.0317 3.62838
769 1 1 2.63191 17.0821 1.38968
682 1 1 1.2402 15.5229 3.24758
766 1 1 0.527056 18.5947 1.75757
1172 1 1 3.37731 18.1547 2.73421
7972 1 1 3.07953 0.834695 0.480801
1168 1 1 5.82746 0.763787 2.72251
777 1 1 5.01827 16.9321 2.41972
1130 1 1 7.02711 0.640615 2.91147
855 1 1 7.63436 16.8022 3.04552
1180 1 1 8.14006 17.9387 3.77979
19 1 1 9.55366 17.2591 2.5003
11 1 1 9.82753 18.7798 2.64741
468 1 1 9.56124 18.0643 3.37798
386 1 1 14.3275 18.4342 3.92259
783 1 1 10.5317 16.8758 2.81513
831 1 1 14.6801 18.4352 4.92994
867 1 1 13.7626 16.8253 3.51803
790 1 1 13.994 17.8118 2.67389
800 1 1 16.5621 0.555423 3.33407
796 1 1 18.6064 18.2516 3.92681
794 1 1 16.5586 17.9795 2.70883
1238 1 1 0.151532 18.2164 2.81454
873 1 1 1.39238 16.3601 2.66738
43 1 1 2.80585 0.383116 5.26148
843 1 1 2.9957 0.35801 3.95456
443 1 1 1.12102 17.4716 2.69593
487 1 1 4.31594 17.5784 3.31998
292 1 1 6.03565 0.283037 3.87602
772 1 1 5.18385 18.2481 3.27884
1181 1 1 7.57153 1.62719 2.20896
863 1 1 6.79243 1.67844 3.24154
861 1 1 6.87757 0.91879 4.23323
821 1 1 9.40617 18.3073 4.6593
872 1 1 11.6829 1.58613 5.07957
466 1 1 11.7473 0.554077 3.76662
828 1 1 13.7434 1.96858 6.21235
1188 1 1 12.8441 2.82121 4.78552
1341 1 1 12.8537 18.7233 3.70463
30 1 1 13.0807 0.932596 2.3586
1272 1 1 14.6824 1.36533 4.55221
1597 1 1 14.965 1.31902 3.20172
799 1 1 15.7402 1.032 3.81436
1634 1 1 16.2068 0.242358 4.3844
35 1 1 18.4277 1.46508 3.64119
442 1 1 1.63825 1.97725 2.01667
764 1 1 0.642431 1.30122 3.67642
1201 1 1 1.96351 1.28966 3.23647
857 1 1 3.68743 0.499257 1.3096
849 1 1 3.27271 1.64208 1.46037
767 1 1 3.76506 3.85007 3.19911
455 1 1 6.8811 4.3852 1.4066
7220 1 1 6.159 2.71681 3.46493
850 1 1 8.25827 1.05564 2.62983
854 1 1 7.69215 1.35862 3.67747
810 1 1 9.40816 1.88083 4.48943
1138 1 1 10.9912 2.25022 3.2148
410 1 1 8.39588 0.544966 3.79035
1178 1 1 7.54395 17.9091 2.61194
469 1 1 10.7993 1.24456 4.40218
1630 1 1 10.3206 2.62966 3.99704
1273 1 1 13.5492 3.25673 5.42938
32 1 1 14.708 2.40446 2.04397
1197 1 1 18.3309 1.9943 4.86539
1315 1 1 17.9028 3.13122 2.76107
157 1 1 18.4013 2.03797 2.7163
841 1 1 0.808105 2.53555 1.30469
521 1 1 2.98541 3.5206 1.92243
848 1 1 2.73887 3.75191 3.0339
1359 1 1 1.85316 4.77493 5.52094
87 1 1 2.3872 2.77121 1.05006
846 1 1 2.70317 2.68064 4.71229
887 1 1 2.76844 4.90193 2.92006
1256 1 1 4.70693 3.78051 3.59011
1210 1 1 4.11095 2.82634 2.50018
894 1 1 5.19741 4.62463 4.12083
860 1 1 6.42992 1.89617 4.60227
1255 1 1 7.19221 4.1607 2.51505
814 1 1 7.90218 3.84059 3.27652
1345 1 1 9.50718 2.94339 3.01555
1340 1 1 6.39646 3.55035 2.66348
1377 1 1 10.7706 3.51865 4.48831
420 1 1 12.6423 3.53173 3.66331
912 1 1 13.2392 4.44049 4.17762
471 1 1 14.0699 4.97587 2.3459
514 1 1 16.0439 2.25743 2.27905
156 1 1 15.416 4.43929 3.90361
910 1 1 15.45 2.03408 4.35812
1669 1 1 14.7104 2.57365 3.89234
801 1 1 17.518 4.01458 3.59201
1675 1 1 17.2434 3.12453 3.77872
448 1 1 1.16007 1.09741 2.35753
918 1 1 0.671068 4.73936 6.70637
1200 1 1 0.650618 3.1897 4.51954
525 1 1 17.1943 4.9956 4.99427
1797 1 1 2.21286 4.97062 4.54808
1242 1 1 2.85119 3.93314 5.04775
1605 1 1 3.66853 4.42762 4.0302
454 1 1 4.97669 3.91557 2.65129
1733 1 1 3.3089 5.82285 4.62613
1254 1 1 6.13926 4.78373 2.16209
1295 1 1 9.12786 4.17602 3.31718
1384 1 1 7.7893 3.73842 4.53802
537 1 1 9.61768 3.78564 2.41526
939 1 1 8.14981 5.26636 3.80519
7779 1 1 10.724 4.07856 2.91706
544 1 1 14.5041 7.27039 4.63206
870 1 1 13.5661 6.62755 4.1654
509 1 1 12.6553 5.9051 3.79637
34 1 1 12.8271 3.22405 2.76177
558 1 1 14.5469 3.73345 3.14976
960 1 1 0.291637 5.766 3.59766
520 1 1 18.424 3.96323 2.32296
488 1 1 2.25406 3.02451 2.3986
880 1 1 17.7451 7.11784 4.16691
522 1 1 18.7927 6.81791 3.0854
922 1 1 0.779661 6.35973 4.23158
1285 1 1 1.02873 6.31248 2.91199
999 1 1 0.87495 7.57894 2.7389
486 1 1 1.71821 6.99448 3.83734
489 1 1 2.21059 6.29912 3.34348
886 1 1 3.31728 7.22645 2.05673
966 1 1 2.06844 5.93389 2.23438
924 1 1 2.65761 5.39676 3.80934
936 1 1 4.01702 6.87587 3.31779
99 1 1 5.55009 6.03932 2.70181
1780 1 1 6.08544 6.92771 3.95554
1739 1 1 8.39999 6.78613 3.96283
1331 1 1 7.10247 6.90803 4.28843
971 1 1 9.11149 5.88107 4.40435
938 1 1 10.1846 5.83934 3.59941
1338 1 1 9.72125 4.59434 4.39548
623 1 1 11.3314 5.80246 1.8298
944 1 1 11.5521 5.89155 3.7567
551 1 1 11.9582 5.96877 2.77089
152 1 1 12.3846 5.806 1.80911
7754 1 1 12.8681 5.0642 3.13686
512 1 1 13.9265 7.19126 5.71918
878 1 1 15.0604 5.36405 4.16478
112 1 1 15.9125 5.74444 3.40096
920 1 1 15.905 5.49771 5.13537
1396 1 1 17.53 7.27345 1.89701
1793 1 1 16.6115 5.65217 4.44013
1443 1 1 17.2267 5.89631 2.92807
603 1 1 18.7859 7.05931 4.20501
1365 1 1 1.71248 8.39362 2.79735
531 1 1 4.21958 10.0768 4.59338
1369 1 1 4.63132 7.67849 37.5736
1409 1 1 2.72869 7.21962 2.86833
209 1 1 3.10299 6.35325 2.51283
90 1 1 5.12001 7.20791 3.48589
1045 1 1 4.20612 8.12638 3.43847
649 1 1 7.56714 9.31593 4.71029
7850 1 1 7.13805 7.94852 1.22247
492 1 1 8.20336 7.54675 4.55182
1373 1 1 6.55025 6.24431 2.82651
530 1 1 7.18 7.04117 3.16803
975 1 1 7.65205 6.76009 5.18808
584 1 1 10.0334 10.2652 5.08973
1421 1 1 8.67145 9.93483 4.71348
978 1 1 9.26466 6.41331 3.30131
555 1 1 10.315 6.80757 3.80727
586 1 1 9.8998 8.59221 3.24003
587 1 1 9.15579 8.86971 4.26774
232 1 1 10.3391 9.51491 4.098
1036 1 1 13.059 6.52055 2.77547
979 1 1 14.3372 5.68691 3.14685
193 1 1 15.8426 7.4201 3.21573
956 1 1 14.8487 7.94487 3.15909
1314 1 1 16.9699 8.10597 2.40862
1071 1 1 17.6668 8.03191 4.85818
563 1 1 17.7106 8.18171 3.64735
1005 1 1 0.22111 9.67944 3.1838
1439 1 1 1.88669 9.65142 4.25477
1053 1 1 2.1543 9.28899 2.91299
1051 1 1 5.69116 10.1693 5.28759
572 1 1 5.11601 9.27544 4.29203
1420 1 1 7.07534 10.0859 2.39044
1015 1 1 7.46797 11.2735 5.46592
1017 1 1 7.1226 8.67136 4.09098
136 1 1 11.373 9.97268 4.93129
1021 1 1 8.026 10.7803 4.34843
985 1 1 10.6922 11.8622 4.55714
539 1 1 9.4081 8.24976 2.35896
1066 1 1 12.0184 7.90629 3.74893
993 1 1 13.645 8.45805 3.39013
640 1 1 13.2651 7.86648 1.13294
1434 1 1 14.4023 9.36516 5.43573
1073 1 1 14.2637 10.142 3.68682
1038 1 1 17.6994 8.7322 2.15825
1037 1 1 15.2123 8.67533 4.24749
1012 1 1 3.78392 11.4376 2.88319
597 1 1 0.465585 10.2732 4.11394
1444 1 1 1.78705 11.6814 3.6548
1405 1 1 3.49557 10.228 3.51921
1085 1 1 4.36994 10.7697 3.63712
1415 1 1 4.61228 10.8631 4.97045
653 1 1 6.55893 11.2852 2.68419
1334 1 1 6.44708 9.32986 3.51931
650 1 1 6.18344 12.045 5.33342
606 1 1 10.487 9.39739 2.74924
659 1 1 6.55337 12.2511 3.9046
1462 1 1 9.18712 10.4213 4.061
707 1 1 9.26916 11.581 4.33195
916 1 1 13.3807 11.3599 3.67744
1065 1 1 13.5684 9.75788 3.14591
1547 1 1 13.3919 11.5888 1.83488
1429 1 1 14.3543 9.74184 1.72654
311 1 1 17.2942 10.8258 3.87964
1437 1 1 16.1385 12.3719 3.34069
1034 1 1 18.077 9.9966 3.51347
197 1 1 0.986312 8.9874 1.34893
7843 1 1 2.85215 12.8856 2.95659
1368 1 1 0.493363 11.9982 3.69883
242 1 1 1.7468 12.7523 3.00181
968 1 1 1.08837 11.5455 2.75102
1406 1 1 2.31888 12.7294 3.93628
604 1 1 4.55015 11.8188 3.45046
246 1 1 3.20857 12.9243 4.1565
1008 1 1 4.75631 13.2691 2.90793
612 1 1 5.97336 14.0135 4.297
661 1 1 7.18318 12.0138 3.03288
225 1 1 10.6255 13.3174 3.40424
7862 1 1 9.60608 10.9621 2.76826
621 1 1 8.9596 12.815 3.95545
1465 1 1 9.76739 11.8058 5.31549
663 1 1 11.8465 11.8279 4.40502
630 1 1 12.3891 12.1179 3.37204
1070 1 1 13.2622 12.8885 3.92331
1074 1 1 13.8742 13.0592 2.74608
669 1 1 14.3886 11.998 4.39221
1474 1 1 16.1875 13.4876 3.21027
1001 1 1 17.0438 12.6046 2.76606
270 1 1 18.5247 12.5313 3.38934
243 1 1 2.70213 14.055 2.55442
286 1 1 3.82708 14.4079 4.93511
678 1 1 18.158 12.6386 4.34962
686 1 1 3.07005 13.7267 3.52132
1453 1 1 3.48736 14.5612 2.7475
1136 1 1 3.76327 14.5056 1.3983
1446 1 1 4.05381 13.9778 3.63131
605 1 1 7.07615 15.8561 3.50792
1047 1 1 6.79575 13.2735 3.56632
1090 1 1 7.86751 15.2711 2.93701
7823 1 1 8.08311 12.0961 3.83237
1104 1 1 7.77838 13.3757 3.01689
1533 1 1 10.0911 14.0226 2.75828
1537 1 1 10.3478 14.2211 4.39306
664 1 1 9.43606 15.1629 3.60616
1114 1 1 12.7413 15.8819 1.41368
711 1 1 11.5958 14.8819 4.63043
1501 1 1 12.0418 13.005 3.92521
1505 1 1 12.0887 14.0292 5.27171
602 1 1 13.2092 15.0044 3.20173
672 1 1 13.6998 13.5065 4.77101
1151 1 1 13.3768 14.0848 2.33085
1472 1 1 12.6277 16.1065 3.58186
715 1 1 14.4697 13.2518 3.89353
1115 1 1 14.5434 13.6953 5.86324
590 1 1 16.217 14.6274 2.64141
1042 1 1 15.695 13.152 4.22379
720 1 1 17.673 13.4967 3.36714
683 1 1 17.5062 13.5751 2.24459
1163 1 1 1.90569 13.7818 3.9555
1046 1 1 18.5284 15.0197 2.8141
332 1 1 4.42612 15.3419 2.96239
1131 1 1 3.13331 15.2195 3.43417
411 1 1 5.05773 14.8102 1.66559
1530 1 1 4.80647 14.531 3.9009
1170 1 1 7.44513 16.3983 2.12964
737 1 1 9.04466 15.0634 2.36491
260 1 1 9.29563 16.3617 2.91458
1127 1 1 7.0766 14.5581 4.59115
736 1 1 10.0274 15.6833 2.47045
1139 1 1 12.1382 16.2232 4.82119
1107 1 1 11.2716 15.5342 3.28617
1543 1 1 13.062 16.7617 4.62837
701 1 1 11.975 16.8633 2.03796
310 1 1 14.9075 13.8465 3.03879
712 1 1 13.4046 15.6044 4.14902
1153 1 1 14.1244 14.8644 2.93132
1514 1 1 1.30377 14.7767 3.92909
759 1 1 17.3931 15.2837 4.95036
724 1 1 0.306595 14.8432 3.60037
284 1 1 0.996016 15.704 4.36106
1167 1 1 2.32662 15.5481 4.38215
323 1 1 5.0264 17.1087 3.9413
282 1 1 2.12112 15.6393 2.63936
1133 1 1 5.65632 15.3014 4.71846
734 1 1 7.01204 16.9565 4.03535
778 1 1 6.02479 17.0942 6.08285
535 1 1 6.70166 17.8069 4.6245
7975 1 1 7.88021 14.7395 3.85574
1185 1 1 9.51042 16.4738 4.85596
1541 1 1 8.35778 17.1493 2.34368
823 1 1 11.9111 17.5552 4.50996
671 1 1 10.2314 17.5447 4.89792
1186 1 1 10.68 16.8556 4.03057
1183 1 1 14.415 15.3949 4.65441
1187 1 1 11.9401 18.0369 3.62325
1191 1 1 14.4399 16.515 4.26695
748 1 1 16.3273 16.7086 5.18917
716 1 1 15.6863 16.6047 2.53518
1150 1 1 16.2388 15.2927 3.41725
1189 1 1 16.6061 17.3652 3.56672
280 1 1 0.252983 16.4477 3.8421
727 1 1 18.2161 15.3429 3.89511
837 1 1 18.24 18.2733 1.46635
1161 1 1 2.78206 16.4891 4.62455
726 1 1 5.43383 17.976 2.33404
693 1 1 4.77508 16.43 5.25717
1215 1 1 5.97832 0.13278 4.96469
1217 1 1 4.5498 16.1466 4.22649
1213 1 1 8.06308 17.2493 4.47466
1140 1 1 6.8517 18.5959 3.84876
423 1 1 10.339 16.4693 5.59501
428 1 1 10.3469 0.150503 4.4962
822 1 1 11.5937 0.209993 6.70409
1141 1 1 9.67582 18.3547 5.67388
432 1 1 15.8689 16.6825 4.04136
463 1 1 14.7383 17.2934 4.89458
1195 1 1 17.4295 18.1769 3.51734
467 1 1 13.8445 1.01082 3.43891
1590 1 1 14.1791 0.258377 2.88093
787 1 1 15.3139 18.6211 3.71494
1160 1 1 17.3069 0.963146 2.41221
2037 1 1 17.8852 16.4372 2.96465
1239 1 1 1.52698 0.499282 4.88601
1206 1 1 3.13795 1.44104 4.12996