ITEM: TIMESTEP
3500
ITEM: NUMBER OF ATOMS
8000
ITEM: BOX BOUNDS pp pp pp
0.0000000000000000e+00 1.8820720577620570e+01
0.0000000000000000e+00 1.8820720577620570e+01
0.0000000000000000e+00 3.7641441155241139e+01
ITEM: ATOMS id mass type x y z
917 1 1 0.0191754 1.55009 0.776541
7524 1 1 3.02331 2.35478 1.76621
319 1 1 2.57528 18.2481 0.859294
770 1 1 5.51449 0.535338 37.2431
7215 1 1 2.86424 0.965231 0.76381
6 1 1 4.40309 0.529584 37.607
7644 1 1 5.89131 1.99283 1.56102
7339 1 1 6.10202 0.699484 1.43077
7620 1 1 7.00343 0.56438 0.115854
343 1 1 6.39464 2.33051 0.758373
416 1 1 8.29 1.71426 1.1467
937 1 1 8.95447 2.69618 1.0185
780 1 1 10.0878 17.2293 1.84602
15 1 1 11.0193 2.30731 0.647361
7661 1 1 9.03039 1.24527 1.89799
7667 1 1 9.16127 1.76103 0.477684
785 1 1 13.2512 17.6121 1.15357
346 1 1 10.0075 1.33441 1.34341
22 1 1 10.4141 0.621314 2.61062
7619 1 1 13.0968 0.0229838 1.20926
746 1 1 13.5683 0.880133 1.71328
7665 1 1 12.814 1.09056 37.5542
7601 1 1 16.8097 1.05612 1.90664
77 1 1 18.4148 1.57163 37.3919
7992 1 1 17.4052 2.68901 1.66798
356 1 1 17.5433 0.140353 1.49056
761 1 1 1.2056 3.84436 37.1534
7608 1 1 2.07186 2.14394 36.854
408 1 1 2.83937 3.75246 35.8987
7631 1 1 4.99308 2.44633 1.59913
89 1 1 4.79418 3.14359 3.04859
857 1 1 5.87309 1.20475 2.31323
849 1 1 4.01294 1.56717 1.61587
935 1 1 5.01911 2.11292 37.0112
533 1 1 8.67444 4.07755 1.32843
371 1 1 7.20451 3.10598 1.02434
57 1 1 7.68108 2.62599 36.7477
7298 1 1 6.74589 2.54698 2.59074
55 1 1 8.47292 3.44813 0.334222
897 1 1 8.89213 2.56043 37.459
1687 1 1 9.54539 3.73723 0.369651
838 1 1 9.70244 1.44591 2.5166
387 1 1 12.7006 1.15159 1.15184
1270 1 1 11.2874 1.36451 1.08216
116 1 1 11.9204 2.23584 36.6028
65 1 1 14.0142 2.68159 37.4065
39 1 1 11.3529 1.6416 37.2729
431 1 1 15.4966 3.0345 0.451813
109 1 1 17.7856 2.22859 0.72829
7996 1 1 18.4654 0.482759 0.378178
430 1 1 0.346728 2.04569 2.45753
479 1 1 18.7559 2.96123 0.440921
841 1 1 1.01303 1.53322 0.996566
1289 1 1 2.96001 2.08667 37.5891
7678 1 1 1.68323 3.39723 0.593781
37 1 1 2.59614 3.00361 36.9651
885 1 1 4.26862 3.35305 1.21485
521 1 1 5.8306 4.40726 0.301619
900 1 1 5.45694 3.11034 37.532
455 1 1 6.56086 3.37562 1.75339
494 1 1 9.13993 3.94796 37.0521
7657 1 1 7.46341 4.66341 0.548926
461 1 1 10.0938 2.80206 37.5318
28 1 1 11.8483 3.81169 1.11458
623 1 1 10.7396 3.91845 36.1869
505 1 1 12.4765 3.04004 0.255372
7746 1 1 13.648 4.61966 36.9292
72 1 1 15.5853 3.70984 1.93874
7756 1 1 18.1074 5.99153 1.08779
7950 1 1 16.3314 3.01311 36.7035
73 1 1 16.6327 3.29307 1.04968
442 1 1 0.192829 3.86583 1.09
127 1 1 0.358073 4.68444 35.9411
729 1 1 1.83216 5.44716 37.5544
7249 1 1 1.67109 4.47866 0.711344
7643 1 1 2.49461 5.77918 0.894096
933 1 1 3.47856 3.45259 37.53
485 1 1 4.04917 5.67748 36.9633
7700 1 1 6.59843 5.34552 1.60696
209 1 1 4.73392 4.12918 1.51825
52 1 1 5.18369 5.60174 0.112448
7371 1 1 4.57311 5.30296 1.56293
497 1 1 6.33482 6.80443 1.54294
532 1 1 8.53345 5.44211 0.559711
575 1 1 9.14717 5.03328 36.6612
462 1 1 9.39467 5.78643 37.4676
537 1 1 9.58037 4.80594 0.454359
224 1 1 11.4919 5.15896 1.18605
633 1 1 10.6663 5.87079 1.69194
146 1 1 13.2573 6.44532 1.33082
152 1 1 13.4794 5.00599 0.644809
476 1 1 14.2382 6.40456 1.07693
7392 1 1 13.1115 3.59499 36.9915
80 1 1 16.3936 4.91055 35.8215
7236 1 1 16.4169 5.66658 1.05902
517 1 1 18.1622 3.82505 37.4313
554 1 1 17.0917 6.8929 1.2452
7603 1 1 17.394 5.85917 0.349545
520 1 1 0.176797 4.86793 37.4084
7715 1 1 18.4034 5.04416 2.29379
88 1 1 1.29241 5.7332 0.615506
444 1 1 18.4525 7.70877 1.25472
999 1 1 18.3572 7.20283 0.330418
524 1 1 3.39345 5.87645 0.54298
440 1 1 3.19157 6.52816 1.33848
7239 1 1 0.602211 5.84162 37.3778
10 1 1 7.47425 7.30013 2.83398
445 1 1 5.50115 6.77959 0.583239
99 1 1 8.58406 7.93405 36.3736
534 1 1 7.84692 6.96872 37.231
7699 1 1 7.89948 4.97684 36.8857
7423 1 1 9.99841 3.94912 1.37003
502 1 1 12.4666 5.81067 0.756264
570 1 1 10.8248 6.64638 36.0145
7821 1 1 11.9456 6.60974 0.0668849
989 1 1 13.3388 6.60625 0.163338
578 1 1 14.2519 7.2375 0.373415
7591 1 1 13.6055 7.25098 36.8916
7798 1 1 13.9104 6.65149 2.09988
1000 1 1 14.6285 5.23163 0.624777
7359 1 1 16.5723 7.31059 0.337316
1396 1 1 16.8676 9.09935 0.398974
559 1 1 17.8123 8.14647 0.436252
74 1 1 17.2091 7.39009 36.8894
195 1 1 18.0823 6.85148 36.8888
1329 1 1 18.5931 7.75738 37.1065
44 1 1 1.79048 6.63341 37.3626
1409 1 1 1.83894 6.91651 1.09614
128 1 1 3.16276 10.7447 36.668
92 1 1 4.33631 8.83952 37.2156
81 1 1 3.52321 8.90039 0.941496
446 1 1 7.08685 7.68986 1.80461
1369 1 1 3.27145 6.74882 37.2114
983 1 1 6.36981 8.71629 1.75473
95 1 1 7.73303 8.39054 36.8709
607 1 1 11.4808 7.57323 0.64586
619 1 1 9.31317 9.39334 37.4505
7855 1 1 12.4026 7.21761 1.21908
1067 1 1 12.5448 8.04134 0.459601
7743 1 1 11.513 8.79632 0.725371
186 1 1 13.6859 7.97863 37.6329
7800 1 1 16.0324 6.32215 37.558
552 1 1 15.1821 6.56561 0.749431
634 1 1 17.2147 4.69333 0.696258
549 1 1 15.2986 7.65601 0.598617
78 1 1 15.0063 8.68753 0.523656
1314 1 1 17.1727 8.83936 1.44584
7395 1 1 16.3488 9.98655 0.662546
7641 1 1 18.3827 6.10418 2.48967
1323 1 1 1.48833 7.92044 1.10961
7879 1 1 17.8062 8.25868 36.7881
239 1 1 1.68959 8.94002 1.14655
153 1 1 2.61756 7.90208 1.10503
1048 1 1 4.49853 9.70688 0.67963
197 1 1 2.24962 10.3525 0.407957
222 1 1 6.03097 9.16221 0.552142
138 1 1 7.47249 8.93338 2.65926
7774 1 1 7.51025 10.4675 37.4018
1461 1 1 7.36144 8.55777 1.41084
7772 1 1 8.83127 9.97157 0.994546
1109 1 1 9.46835 10.4975 37.5764
7751 1 1 11.3333 9.94456 0.981082
303 1 1 10.9303 9.1067 2.40072
665 1 1 13.0053 9.37843 0.382581
7432 1 1 12.2687 8.90662 1.36372
265 1 1 13.1996 11.2597 35.9434
7466 1 1 12.5774 9.16481 36.9808
230 1 1 14.9643 9.49773 37.1923
276 1 1 15.3392 9.83864 0.80891
557 1 1 17.0022 10.4423 37.3231
4 1 1 15.9044 11.4835 0.62176
636 1 1 16.1912 8.96557 1.33305
7758 1 1 17.2082 7.7188 1.84199
1450 1 1 17.9536 11.5674 2.53954
1521 1 1 0.730156 10.6885 1.56102
598 1 1 3.03496 13.6128 0.713355
165 1 1 2.31074 11.5988 37.3847
1365 1 1 3.18481 11.4105 0.140227
7847 1 1 4.61872 10.0461 37.3265
7734 1 1 8.46959 10.1758 37.2687
536 1 1 7.01002 10.7973 1.72797
374 1 1 9.00694 11.6036 1.60473
976 1 1 10.9068 12.1452 0.844882
228 1 1 11.0217 11.0416 0.903393
1063 1 1 12.1254 10.0347 0.238056
7912 1 1 11.855 11.2585 1.62047
7428 1 1 13.5531 10.6153 1.74612
308 1 1 13.6713 10.2432 0.129692
235 1 1 13.6243 11.8526 2.99407
236 1 1 16.6048 12.6763 2.22266
7875 1 1 15.4334 12.3607 36.846
1389 1 1 15.0376 12.8287 2.43856
192 1 1 0.286925 11.538 2.28798
7804 1 1 17.493 10.1001 0.504956
962 1 1 17.7866 12.1354 36.0756
281 1 1 17.6614 9.40626 37.4013
84 1 1 18.2902 8.95788 0.852744
1154 1 1 0.892431 14.2756 0.074945
7880 1 1 1.19946 11.4183 1.01944
365 1 1 4.13758 11.7214 0.988287
1089 1 1 5.46572 13.0943 1.76396
613 1 1 6.00386 12.2127 2.22803
7499 1 1 5.26189 11.8582 0.812424
7808 1 1 7.22385 11.319 0.688196
687 1 1 6.82267 12.9508 2.1074
1098 1 1 7.40564 9.62036 1.619
296 1 1 7.66474 12.3622 1.40852
660 1 1 9.65058 12.366 0.733851
705 1 1 11.2403 13.0343 0.022086
269 1 1 11.849 12.3413 1.57898
7903 1 1 12.8304 14.2119 0.471268
273 1 1 12.5585 12.9952 0.590432
639 1 1 16.9892 13.4102 2.87097
1078 1 1 16.7416 12.1569 0.362103
1040 1 1 16.8134 14.3711 37.2302
7525 1 1 0.117104 12.1945 36.7101
204 1 1 17.544 14.9575 1.13447
404 1 1 3.51592 14.8904 2.37367
7835 1 1 2.38849 11.3134 0.866988
643 1 1 3.24208 15.5088 0.600986
1010 1 1 6.49655 13.805 2.59205
287 1 1 5.01262 15.2564 0.064764
567 1 1 6.80998 11.9595 37.0247
342 1 1 6.69223 14.4052 0.974611
344 1 1 8.56974 14.5502 1.46519
1573 1 1 7.58886 13.7776 2.46589
697 1 1 10.0129 11.2451 0.552754
602 1 1 10.1996 13.2871 0.707386
982 1 1 12.7386 15.3417 37.5735
379 1 1 12.5259 15.2462 1.21434
7834 1 1 13.0131 12.1107 0.970182
7440 1 1 13.7558 12.7796 0.421977
674 1 1 14.9432 12.7457 0.771609
7561 1 1 15.5922 14.9519 0.803472
7925 1 1 16.2734 13.0911 0.615443
7844 1 1 15.5343 16.2364 0.72247
683 1 1 15.7393 13.0004 1.58084
7924 1 1 0.349331 11.017 37.4297
397 1 1 18.1551 14.8808 37.157
1125 1 1 1.31131 17.1541 0.637555
648 1 1 1.61555 16.1274 0.378262
7888 1 1 4.40239 12.677 3.24699
700 1 1 7.21185 16.4388 0.645289
332 1 1 6.12497 15.9399 1.56322
7930 1 1 6.53599 16.1332 37.4181
7937 1 1 7.61484 15.0263 0.0323705
743 1 1 7.76259 13.7783 37.0676
249 1 1 10.9852 14.92 37.392
7858 1 1 9.68471 15.7918 37.6202
658 1 1 11.1134 16.1277 0.109496
7945 1 1 9.49414 15.1732 3.10799
666 1 1 13.726 15.0278 0.390402
7551 1 1 14.553 14.2162 0.987917
749 1 1 14.5892 15.6996 36.327
7991 1 1 13.7666 15.0704 37.0401
314 1 1 16.6866 15.2456 0.312636
328 1 1 17.8892 17.9055 1.16321
7040 1 1 17.5993 16.6107 1.44468
797 1 1 0.967981 16.1612 37.0881
732 1 1 2.92071 17.8029 37.3824
7650 1 1 1.31603 17.2959 36.5542
721 1 1 4.22381 17.9873 1.13827
1128 1 1 4.105 15.7331 1.18586
771 1 1 3.78935 16.8326 1.07148
85 1 1 4.54018 16.2494 36.5634
775 1 1 7.15567 17.0103 37.5514
1541 1 1 8.12878 17.4801 2.72904
7531 1 1 7.86028 18.1902 1.57662
698 1 1 9.20702 16.482 0.952883
655 1 1 9.18772 17.036 2.37698
304 1 1 11.5755 15.6616 1.00379
7983 1 1 10.4431 16.0657 1.20788
7994 1 1 12.1193 17.012 1.07861
675 1 1 13.8265 16.1274 37.5405
306 1 1 14.3356 16.7432 0.61111
7188 1 1 14.652 17.6683 1.19722
7547 1 1 14.1868 17.0159 37.2023
7990 1 1 12.7871 18.1484 36.9835
7881 1 1 14.8815 16.1773 37.3274
7228 1 1 16.6789 17.3522 1.74702
351 1 1 17.6241 15.9448 0.51126
7635 1 1 0.242417 18.5008 37.2507
7280 1 1 2.12553 0.152123 2.08074
7998 1 1 2.57868 17.5248 1.58919
731 1 1 2.00805 0.493631 0.0127905
7972 1 1 2.79859 16.6722 0.768872
448 1 1 4.09972 17.426 0.289832
7971 1 1 4.73377 17.9454 2.01624
363 1 1 5.5491 16.8778 37.4712
726 1 1 5.45254 0.363773 0.526609
60 1 1 6.24429 18.4671 0.981639
7539 1 1 7.25065 1.33487 0.865814
419 1 1 7.85064 0.3869 1.1727
67 1 1 8.11028 18.2633 0.60215
382 1 1 11.1475 17.8542 2.46893
829 1 1 8.98691 0.0681754 1.28863
742 1 1 9.86897 18.3828 37.0617
7938 1 1 10.1894 18.1622 1.38932
6836 1 1 12.9981 17.2375 35.6295
31 1 1 12.0108 17.6895 37.5174
7948 1 1 12.2463 18.115 1.98267
7997 1 1 14.4065 0.812707 0.00481033
7622 1 1 15.1535 17.1768 0.157373
352 1 1 15.1973 18.7931 37.5108
7515 1 1 15.6719 17.961 2.20995
395 1 1 15.1632 17.367 36.7699
7552 1 1 16.5678 0.217112 0.907933
752 1 1 18.2825 18.531 3.11524
157 1 1 1.15127 0.043111 2.6614
40 1 1 1.32736 0.144516 3.9299
321 1 1 1.81074 0.980707 1.2878
1208 1 1 3.19884 18.7635 1.45987
41 1 1 3.99013 18.6991 2.04624
764 1 1 3.71435 0.425289 0.649001
1168 1 1 4.95602 1.02369 1.36932
774 1 1 4.86823 18.7998 1.35949
385 1 1 8.02975 1.03536 2.2753
850 1 1 8.94492 1.6774 3.54687
7626 1 1 8.58464 2.08959 2.44655
422 1 1 11.2771 0.309963 2.81965
824 1 1 13.0865 18.5384 2.46231
818 1 1 10.9689 17.3214 3.29607
1143 1 1 14.946 1.45102 3.05676
784 1 1 14.3169 1.92762 2.25743
389 1 1 15.0879 18.2541 3.15751
798 1 1 14.656 17.2714 2.31968
1106 1 1 16.5601 2.23378 1.0428
1272 1 1 14.3384 1.60514 1.28584
115 1 1 17.1293 1.89206 2.53867
835 1 1 1.10666 1.18269 2.28265
33 1 1 18.5005 17.4691 37.4436
833 1 1 18.3197 1.15496 1.81162
324 1 1 1.71816 2.06492 1.95015
35 1 1 18.1655 2.50645 2.44698
362 1 1 2.83576 3.94548 2.32322
47 1 1 3.33714 1.91001 3.03545
491 1 1 4.21145 2.28962 2.27752
7616 1 1 5.1752 1.43669 3.03476
765 1 1 7.85205 2.84127 1.93166
7219 1 1 6.8554 1.73892 2.00571
93 1 1 8.02866 3.37529 3.09926
7698 1 1 8.73588 5.2467 2.72322
908 1 1 10.0536 2.79063 1.35688
470 1 1 9.72771 3.60013 4.36388
473 1 1 10.8506 3.62545 1.07516
869 1 1 11.3665 0.991827 2.13825
876 1 1 12.7019 2.91763 1.21049
30 1 1 13.5403 3.7767 0.853009
511 1 1 12.1743 2.05809 0.329196
32 1 1 13.3309 1.87332 1.58058
787 1 1 15.8356 1.59998 1.38596
478 1 1 17.4312 3.5534 2.22441
514 1 1 16.3445 3.78491 2.78606
1675 1 1 18.3967 3.38463 1.8621
82 1 1 1.17881 3.89192 1.41993
899 1 1 1.1363 3.02721 2.32272
87 1 1 2.41194 4.87632 1.42314
488 1 1 2.7816 3.21587 3.40043
449 1 1 2.98308 6.38624 2.45027
475 1 1 2.77343 3.83295 0.633257
889 1 1 5.74315 2.72347 2.51211
454 1 1 3.39374 4.85929 0.966169
376 1 1 6.23377 4.33604 1.86568
504 1 1 6.33659 2.3564 3.54506
14 1 1 7.19802 3.92967 2.53632
500 1 1 10.2049 2.51843 2.68091
139 1 1 11.7542 1.90495 2.6006
460 1 1 11.5357 3.33027 1.9241
556 1 1 12.7603 4.36603 1.02889
7636 1 1 13.6376 3.95493 1.94478
34 1 1 14.6355 2.87071 1.80251
506 1 1 14.5123 3.46935 0.790265
113 1 1 14.7008 3.77021 2.33711
786 1 1 15.4753 4.3807 2.82587
480 1 1 17.6896 3.61953 0.717781
155 1 1 1.07249 2.6495 1.08873
1232 1 1 18.7193 2.32 1.54791
1751 1 1 18.1599 3.3874 3.34346
523 1 1 2.02595 6.00902 1.86728
441 1 1 1.45145 7.13279 2.13338
1290 1 1 3.84673 5.87144 3.16396
1337 1 1 4.2722 4.62787 0.347261
1254 1 1 6.26133 5.88991 4.99338
102 1 1 8.5605 4.45591 0.142174
945 1 1 7.7092 4.63356 1.84551
1295 1 1 6.47358 4.85231 2.76317
7611 1 1 10.5724 4.23423 0.148204
814 1 1 9.25725 2.99875 1.93955
217 1 1 10.6239 3.62786 2.29829
909 1 1 11.4758 6.05722 2.48181
978 1 1 11.1691 4.32313 1.78671
538 1 1 12.0431 4.96459 2.09551
150 1 1 13.1154 5.40065 1.52347
134 1 1 13.8406 7.10156 3.38929
420 1 1 13.1677 4.79188 2.41448
68 1 1 14.3738 4.59242 2.72865
471 1 1 14.0146 4.91714 1.60354
944 1 1 13.9104 5.67553 2.33478
7986 1 1 15.4354 4.93634 1.49249
594 1 1 15.7726 6.09403 3.55818
550 1 1 15.9827 5.48443 2.19595
519 1 1 17.066 5.21716 1.97931
1315 1 1 0.237292 4.29781 1.95272
522 1 1 0.884069 6.15447 1.94308
1285 1 1 0.972697 5.04195 1.81234
7718 1 1 2.43838 8.37015 2.52274
922 1 1 0.723439 7.23285 1.24589
637 1 1 4.63154 6.51104 3.41149
886 1 1 3.11843 7.10071 0.504846
90 1 1 4.15562 7.71585 3.10011
53 1 1 5.54887 8.68428 3.22954
171 1 1 8.13394 6.85364 1.55879
1334 1 1 5.74861 6.42828 3.75153
1774 1 1 6.07955 7.56568 2.46627
530 1 1 9.02133 7.28474 0.59457
91 1 1 9.94926 7.9347 0.991948
616 1 1 10.0302 4.97703 1.64586
177 1 1 10.8468 7.00474 1.79784
973 1 1 10.6387 6.74595 2.73893
579 1 1 11.3372 6.4397 0.983072
551 1 1 12.4008 6.35561 1.96002
1036 1 1 12.9634 7.25139 2.18515
231 1 1 13.972 7.62734 2.53318
546 1 1 15.2284 6.25126 1.99386
196 1 1 15.508 4.76297 0.367259
979 1 1 16.1338 6.53445 1.01421
881 1 1 16.3523 6.53442 2.20635
1360 1 1 16.1272 7.54892 2.39548
808 1 1 0.265328 6.17607 0.680829
1038 1 1 17.0599 7.72569 3.22085
481 1 1 18.6071 7.2378 2.30402
1806 1 1 0.512802 7.04697 0.227895
1488 1 1 2.5264 7.07825 1.83274
131 1 1 3.51448 8.84219 2.18476
645 1 1 4.97526 8.88921 0.883268
1045 1 1 3.90802 8.11138 1.66367
611 1 1 6.98271 7.66333 3.63759
1401 1 1 4.27042 6.60426 0.184529
1339 1 1 6.26258 6.07828 2.89531
1019 1 1 8.8562 7.68375 3.77624
647 1 1 8.25767 9.11887 0.178536
1327 1 1 9.86673 6.86477 1.81533
498 1 1 10.827 7.9825 2.96906
140 1 1 11.8633 7.92949 1.80311
1023 1 1 12.9067 8.34791 2.00147
1429 1 1 13.6409 7.65616 1.53874
7714 1 1 15.0362 7.35013 2.70798
958 1 1 15.5078 8.25827 1.82319
563 1 1 16.3666 7.8907 1.21858
200 1 1 17.8977 7.97194 2.71396
191 1 1 0.395975 7.9732 0.407322
124 1 1 1.18382 8.64845 0.254117
241 1 1 1.5135 8.30714 2.06977
564 1 1 3.03008 10.058 1.99042
7684 1 1 3.35675 9.97845 0.818104
1366 1 1 4.75405 10.8964 1.03549
1287 1 1 4.20003 10.7717 1.92362
164 1 1 5.35301 8.51267 2.13089
357 1 1 6.26343 9.38758 2.60127
7841 1 1 4.30502 7.87394 0.804645
215 1 1 6.381 9.94062 1.33472
566 1 1 6.70941 8.32191 2.68351
890 1 1 8.08358 8.00956 2.08127
178 1 1 10.6574 8.10366 1.74356
1417 1 1 8.17623 10.2188 1.79183
142 1 1 10.8099 10.3442 1.7792
1105 1 1 10.8615 9.18927 1.42548
7748 1 1 9.27934 8.5016 1.60514
7827 1 1 11.5217 9.37794 3.50934
626 1 1 14.5071 8.00975 1.07675
188 1 1 14.151 9.02958 0.779828
916 1 1 13.7775 9.58024 1.73437
568 1 1 0.574269 8.62284 1.3264
202 1 1 1.9325 10.5823 1.58147
1053 1 1 4.0939 9.61486 1.7057
233 1 1 4.79842 12.1385 1.85213
1003 1 1 5.21337 9.92782 1.75529
925 1 1 6.23025 10.3835 2.21439
1061 1 1 8.10412 9.30057 3.50515
1420 1 1 7.88907 10.2408 0.71936
7817 1 1 7.61028 13.5873 0.659121
615 1 1 7.1861 11.8022 2.62117
333 1 1 9.27552 10.9974 2.41508
7862 1 1 8.69233 9.37006 2.50633
7780 1 1 11.6817 10.2284 2.83014
624 1 1 10.4794 9.36854 3.35341
257 1 1 10.9076 12.1772 1.8647
1076 1 1 14.2898 10.2133 0.958734
614 1 1 11.4619 11.515 2.94844
261 1 1 12.6435 10.9596 2.8672
600 1 1 13.4293 11.8069 1.91679
2238 1 1 16.7577 11.6805 2.55025
240 1 1 17.7343 11.5406 4.09317
270 1 1 18.1109 11.8904 0.534947
7921 1 1 1.90506 12.4087 1.56439
242 1 1 1.25111 10.2178 2.29591
7928 1 1 3.29855 10.9407 1.27348
968 1 1 17.7151 12.6056 3.96798
358 1 1 5.70497 11.1714 1.65743
288 1 1 3.43369 11.9718 1.91233
7843 1 1 6.5034 11.719 3.37107
337 1 1 7.32635 11.8038 4.58857
1532 1 1 6.97295 12.7478 3.57453
574 1 1 7.53227 12.952 4.60725
216 1 1 8.54091 10.3198 2.82617
691 1 1 7.75387 12.6596 2.74598
16 1 1 8.50834 13.5795 2.7556
256 1 1 9.9007 12.5103 1.8291
259 1 1 11.6361 13.3835 1.10621
694 1 1 10.8249 11.1274 2.3405
254 1 1 12.3038 12.0509 2.65953
1069 1 1 12.2661 14.0436 1.97438
592 1 1 14.2761 12.5886 37.0566
1074 1 1 14.2498 11.2143 0.763462
271 1 1 14.2708 12.2249 1.36135
7840 1 1 15.2766 11.6089 1.52139
7838 1 1 14.4077 11.2702 1.87594
1035 1 1 17.7522 14.1303 0.300186
677 1 1 18.5848 13.0151 0.200361
1001 1 1 1.04232 10.9524 2.9516
720 1 1 17.4479 12.5099 2.87785
7442 1 1 0.606162 15.2256 36.9822
758 1 1 17.4602 12.6958 0.86692
7964 1 1 0.655503 14.417 1.24749
7482 1 1 2.85233 12.8724 1.6684
685 1 1 4.07605 13.9019 1.92105
1529 1 1 3.64598 14.667 1.29758
1081 1 1 5.96033 13.7354 3.58352
696 1 1 5.14306 14.8907 1.37826
7975 1 1 7.1961 14.8665 2.51471
740 1 1 9.6081 15.3726 1.86147
7856 1 1 8.24601 15.1492 4.00352
341 1 1 9.06929 14.3376 4.20192
213 1 1 9.61302 13.8052 1.38879
7864 1 1 9.61925 14.5838 0.534322
1908 1 1 10.5969 14.9771 2.80895
229 1 1 10.2168 14.6257 1.52792
7829 1 1 13.1478 12.9226 1.96922
747 1 1 14.7805 13.1843 3.42799
277 1 1 12.4815 12.9918 3.20756
317 1 1 12.4901 15.2729 3.46452
278 1 1 16.5592 14.6032 2.75246
7480 1 1 14.0686 13.5973 2.12562
1474 1 1 18.416 16.1105 1.68802
724 1 1 1.0594 14.1106 3.38092
7920 1 1 15.2754 15.4547 1.68409
769 1 1 0.0372008 14.4828 3.74496
282 1 1 0.240508 13.903 2.36928
325 1 1 1.70601 14.0727 0.914454
243 1 1 3.71157 12.8612 2.17672
1136 1 1 5.49459 13.8466 2.42109
1526 1 1 3.31502 16.5518 2.04651
411 1 1 6.02795 14.6816 2.28231
373 1 1 7.23957 15.8592 2.06045
1145 1 1 7.85176 15.2579 1.0567
7214 1 1 7.50752 16.6751 2.64303
7543 1 1 9.29176 14.3362 2.68478
1533 1 1 12.1427 16.0847 2.06847
736 1 1 10.7295 14.4795 0.725954
662 1 1 11.5904 14.8682 2.72721
1151 1 1 12.7858 15.0016 2.16109
699 1 1 11.2753 14.7505 1.55946
670 1 1 14.9965 15.6348 2.80619
1153 1 1 13.8204 15.2162 2.87094
7870 1 1 16.786 16.5055 2.47985
590 1 1 15.6573 14.6145 2.15773
1199 1 1 18.2922 14.0852 1.39115
394 1 1 18.1392 16.1485 2.85369
7887 1 1 0.353878 16.0185 2.27364
399 1 1 1.37881 16.9002 2.54192
1198 1 1 1.15075 16.5071 1.48306
330 1 1 4.20967 15.2418 3.04116
812 1 1 4.9334 17.1297 1.56281
370 1 1 5.13274 16.0177 1.15363
7573 1 1 5.2116 15.0885 2.99086
7610 1 1 5.89386 16.7337 0.769261
29 1 1 6.94329 0.521109 2.18139
777 1 1 5.65681 17.5815 3.24426
690 1 1 7.85645 16.6072 1.60439
381 1 1 8.37592 16.0066 2.20632
1114 1 1 9.24092 16.3379 3.42614
701 1 1 9.3707 17.7259 4.3123
1142 1 1 13.4802 15.785 1.07855
7913 1 1 14.164 18.2761 2.26198
7125 1 1 15.7546 16.9075 3.41562
709 1 1 15.6377 17.8133 4.16122
1158 1 1 18.7163 17.0076 1.6145
837 1 1 15.6866 16.4912 1.86241
766 1 1 18.6612 18.0152 2.11049
12 1 1 0.367408 17.6105 0.44496
436 1 1 2.11947 18.0476 2.86934
7651 1 1 2.77065 17.0189 2.95251
336 1 1 3.38373 17.9778 3.23416
5 1 1 3.64355 17.6493 1.77741
1301 1 1 5.45818 17.7976 0.788725
27 1 1 7.51641 0.175215 3.2613
779 1 1 8.28959 18.491 2.41715
820 1 1 9.93817 0.105098 1.96969
7628 1 1 8.00202 16.8156 4.07314
7627 1 1 9.19776 18.5975 3.74975
316 1 1 12.0027 0.258741 1.77196
64 1 1 13.257 16.7075 1.68682
7478 1 1 14.5785 0.820472 2.2802
7872 1 1 14.434 16.1335 2.0757
7155 1 1 16.3633 17.5276 2.79068
1110 1 1 17.8624 0.695876 2.79925
364 1 1 16.4768 0.0194799 2.01608
753 1 1 17.6589 17.4875 2.39156
1954 1 1 0.439287 17.0828 3.84843
843 1 1 2.90006 18.8127 4.52967
853 1 1 2.41581 0.0698821 3.48398
292 1 1 4.02862 0.919811 3.09643
1932 1 1 3.03832 18.7159 2.48295
1260 1 1 2.60353 0.438392 5.59898
772 1 1 5.08862 0.464231 4.24839
452 1 1 5.85471 1.08318 4.15709
861 1 1 6.01138 0.306958 2.92126
734 1 1 6.93274 1.38862 5.16562
17 1 1 7.03376 1.06801 3.01784
1180 1 1 8.05034 1.18271 3.27636
410 1 1 7.78834 18.2684 4.85611
906 1 1 10.0389 1.50444 3.95928
1138 1 1 11.8392 18.5951 3.86264
7984 1 1 13.3855 17.6056 2.77395
26 1 1 13.4957 0.610109 2.85687
792 1 1 13.6364 0.470173 6.20639
949 1 1 15.3892 1.56538 4.0417
433 1 1 16.0271 0.942441 3.19905
702 1 1 14.0586 0.47321 5.11769
800 1 1 16.8543 0.460445 2.96023
1640 1 1 17.0631 0.87052 4.32668
794 1 1 18.4515 0.422232 4.17856
1160 1 1 1.38764 1.90456 2.94159
1670 1 1 16.0394 1.66058 2.45771
1644 1 1 2.26132 2.69521 2.70529
1637 1 1 18.4934 4.43433 3.08882
913 1 1 2.14544 3.04316 1.74537
1201 1 1 3.33071 3.02299 0.996985
802 1 1 1.96114 1.81307 3.8556
1250 1 1 5.04908 0.397545 2.49484
1130 1 1 7.76793 2.25672 2.95639
863 1 1 6.89127 1.49129 3.95392
854 1 1 8.97865 2.4112 4.43053
810 1 1 8.30493 1.96848 5.26586
71 1 1 11.6236 1.21399 3.4576
1345 1 1 9.89875 1.46269 5.14391
7632 1 1 12.6332 1.30879 2.37181
1377 1 1 11.4534 2.63514 4.05083
7779 1 1 10.6095 1.93629 1.97978
151 1 1 14.2012 2.01097 3.72336
1597 1 1 12.6245 2.50122 2.35404
465 1 1 13.5782 2.83752 3.56817
1713 1 1 15.0239 1.7878 0.528865
910 1 1 15.8734 2.81539 3.7941
1265 1 1 16.6988 3.52092 4.09482
2432 1 1 16.4416 3.05242 1.94489
2197 1 1 17.341 4.0455 3.33625
2029 1 1 17.3625 2.81908 3.48245
852 1 1 3.91132 5.77953 2.17023
883 1 1 1.46205 6.32348 2.77498
1241 1 1 1.25189 7.02356 4.70132
450 1 1 1.48691 4.2183 2.39177
7697 1 1 5.38002 3.35647 1.78599
1210 1 1 4.18885 1.83945 3.60155
1206 1 1 3.46462 2.60591 4.09612
7607 1 1 5.83889 2.90676 4.22843
1299 1 1 4.58266 4.92553 4.41373
1181 1 1 6.16672 3.71242 2.74044
104 1 1 5.23765 4.34821 4.01971
7 1 1 8.43735 4.1895 2.77134
971 1 1 9.00632 2.76897 3.00793
588 1 1 12.4407 3.78786 3.34238
862 1 1 11.8994 2.89558 3.07556
427 1 1 12.6405 3.62363 2.05663
1196 1 1 13.6468 2.96305 2.17152
558 1 1 14.8176 2.84238 4.37463
474 1 1 15.3869 2.54799 2.43702
112 1 1 16.3923 2.617 2.87554
603 1 1 1.76036 4.91052 3.52753
1673 1 1 2.47639 7.75649 4.35904
959 1 1 0.808091 7.04778 2.92694
887 1 1 3.39617 4.90586 4.55939
98 1 1 2.61848 4.83696 2.7485
1280 1 1 3.54131 4.51918 3.2038
767 1 1 5.62431 5.32263 3.46916
1340 1 1 6.74022 3.81232 3.55944
1739 1 1 7.39229 5.34346 2.57558
1310 1 1 8.67883 5.15304 1.61229
938 1 1 10.3239 5.22413 2.93121
1385 1 1 9.94335 2.73907 3.66345
1714 1 1 11.1647 6.71867 3.76027
1194 1 1 14.9411 5.50865 2.83499
912 1 1 13.7736 3.89448 3.02327
7754 1 1 13.231 4.79607 3.50637
515 1 1 14.7512 3.76786 3.45576
156 1 1 15.2759 3.77648 5.01249
1316 1 1 15.9425 5.15636 3.57678
1033 1 1 16.725 5.69413 4.18197
120 1 1 0.249099 3.41808 4.11537
1685 1 1 18.555 3.96476 6.33307
486 1 1 18.1697 6.89993 3.14159
966 1 1 3.86201 7.4914 4.34362
884 1 1 1.41943 5.94612 5.0955
848 1 1 3.11298 5.78204 4.08825
1769 1 1 4.72263 5.60287 2.65845
1780 1 1 4.76136 6.10216 5.13559
1373 1 1 5.67019 5.9055 1.96829
975 1 1 4.76337 7.01697 4.25314
1296 1 1 5.41784 6.80232 5.34344
1026 1 1 9.01846 6.17836 1.93443
1331 1 1 7.10074 5.61556 3.48497
1413 1 1 9.55749 4.49354 2.94902
555 1 1 9.65809 7.49244 2.82566
1374 1 1 9.36306 6.0242 3.03774
1066 1 1 10.1472 5.77682 3.78263
553 1 1 9.77035 4.75154 4.06974
7712 1 1 11.9548 6.95448 2.71721
509 1 1 13.1124 6.08421 4.14932
1350 1 1 13.9253 6.79693 4.41939
995 1 1 14.2669 5.93261 3.84871
870 1 1 15.4149 8.37397 5.53468
193 1 1 14.8379 6.99417 3.94297
593 1 1 15.788 7.31266 3.53313
1443 1 1 16.5653 6.53866 3.18085
560 1 1 18.0278 7.21461 4.97819
483 1 1 1.08557 5.20782 2.84479
7721 1 1 18.2561 7.78563 3.84429
489 1 1 2.31818 7.38668 3.02588
531 1 1 3.18022 9.55019 3.04345
1414 1 1 2.56972 8.74776 5.72268
46 1 1 4.06442 8.51942 5.62009
1330 1 1 3.33971 7.6008 2.44043
1041 1 1 4.86064 9.75987 2.79138
936 1 1 3.82187 6.37935 4.82441
580 1 1 4.29164 8.64764 2.73173
180 1 1 7.93394 8.16854 5.55417
1302 1 1 6.3568 4.62125 4.1333
7850 1 1 8.71484 7.56073 4.99008
865 1 1 5.98272 7.46685 5.93914
1017 1 1 9.88592 9.68649 1.69559
1308 1 1 8.52969 7.21405 2.42602
628 1 1 12.2462 7.3212 4.18861
606 1 1 12.9873 8.04478 2.99961
108 1 1 14.1959 8.40998 3.05953
1020 1 1 10.7025 7.33191 4.51791
1425 1 1 10.5259 6.26924 5.8191
942 1 1 11.9076 6.0461 5.92271
1037 1 1 14.4381 8.77881 1.74495
1441 1 1 14.4582 8.12812 4.94168
960 1 1 16.6669 8.01081 4.3242
1353 1 1 15.4682 8.29837 3.12823
2357 1 1 16.754 8.79573 2.4677
997 1 1 17.7464 9.96188 1.51057
1757 1 1 17.3197 8.61695 4.54262
1802 1 1 1.3889 8.61178 3.3701
315 1 1 18.0945 10.5983 2.93962
1034 1 1 0.107654 8.66652 4.04219
1442 1 1 0.185108 8.20733 2.59783
1322 1 1 0.495886 9.90089 3.92426
1724 1 1 2.53739 8.6355 4.67284
1085 1 1 6.96081 9.10477 3.47305
130 1 1 7.92017 8.36698 4.28435
539 1 1 8.41152 8.33305 3.23969
653 1 1 8.39197 9.20726 1.37459
649 1 1 9.77698 8.15379 3.92482
587 1 1 9.5138 9.1265 3.49829
586 1 1 9.36144 9.94636 4.54822
232 1 1 9.73281 9.02671 2.35991
136 1 1 11.0851 8.40239 3.93506
1031 1 1 12.3339 10.2299 1.61711
1065 1 1 10.5666 9.40405 4.37691
1057 1 1 12.7462 5.90447 5.14914
1073 1 1 13.2814 9.95891 2.5926
591 1 1 13.3489 9.02924 2.71852
914 1 1 14.8958 9.0799 3.36861
1395 1 1 15.109 9.27517 2.38747
7397 1 1 16.6904 9.7954 2.23992
961 1 1 18.7417 11.6709 4.79475
1405 1 1 2.05 9.41899 3.87383
1403 1 1 0.272428 9.17767 3.06214
1410 1 1 2.25493 10.6892 2.52296
1484 1 1 1.97626 12.1415 2.86267
1282 1 1 5.18626 11.8275 2.98572
1820 1 1 4.02414 10.4153 5.11174
1002 1 1 6.31206 10.2429 3.46695
1050 1 1 7.36363 10.0173 2.52312
1415 1 1 6.23566 11.0742 4.07192
932 1 1 5.97511 10.8399 5.15973
1091 1 1 5.69835 13.9632 4.78355
610 1 1 7.8672 10.1767 3.6489
1102 1 1 8.34998 13.1774 1.80537
1135 1 1 8.20277 11.923 4.27046
1822 1 1 9.76772 10.9024 4.02661
622 1 1 11.7801 10.9233 4.85954
993 1 1 14.9491 10.1172 1.74698
1430 1 1 13.7889 10.948 3.61729
1538 1 1 14.1715 9.67627 2.96655
1072 1 1 15.1867 10.3908 2.9514
2234 1 1 16.0866 10.9095 2.31648
1825 1 1 16.1504 10.826 3.38516
311 1 1 15.9282 9.73179 3.16184
608 1 1 15.4993 12.0877 3.63432
1475 1 1 17.2552 10.5145 2.44061
757 1 1 0.199541 12.3427 5.60428
1005 1 1 1.48985 11.5045 2.09416
597 1 1 17.0847 13.0023 4.85593
1444 1 1 4.37712 11.3669 3.83469
1406 1 1 0.462506 12.5147 4.65297
246 1 1 4.05085 11.3662 2.72131
1008 1 1 5.05744 12.8678 5.17177
659 1 1 7.46064 11.1332 3.75161
604 1 1 7.17763 12.1271 5.92662
661 1 1 7.73248 10.8418 4.88231
1104 1 1 7.87657 12.6599 6.45437
621 1 1 7.94746 14.3508 3.16119
1182 1 1 10.3801 13.3228 2.35934
1983 1 1 9.88463 13.3473 5.77008
1509 1 1 11.2827 12.6397 3.08644
211 1 1 11.044 10.9624 3.88353
7784 1 1 11.4682 13.2163 4.11321
663 1 1 12.308 12.01 4.43732
667 1 1 13.554 12.8018 4.14279
1437 1 1 14.8689 10.5094 0.0120172
669 1 1 13.983 10.8781 2.66667
1042 1 1 15.3394 11.7118 2.53657
1030 1 1 16.6209 14.4239 3.75186
1149 1 1 18.3144 13.583 3.34794
1368 1 1 16.7036 11.8866 3.6066
1880 1 1 17.11 12.9566 6.03095
1007 1 1 1.4394 12.9375 4.63871
755 1 1 1.58183 13.2422 3.23807
1163 1 1 2.73359 13.0545 3.02347
686 1 1 5.49407 12.8603 2.95164
7900 1 1 6.09025 14.7162 3.48836
1047 1 1 6.49693 13.2311 4.43144
7541 1 1 8.10462 12.121 5.38441
627 1 1 7.21681 13.8055 3.60393
2343 1 1 8.47355 15.0453 2.80762
225 1 1 11.4523 13.328 2.16886
1537 1 1 10.405 14.559 3.79393
1108 1 1 13.1469 14.3708 2.94476
630 1 1 13.3944 13.6993 5.29493
1070 1 1 12.1673 14.214 4.91546
715 1 1 14.8088 13.3876 4.44679
305 1 1 13.7263 14.3191 3.79775
1183 1 1 16.2665 15.153 5.05576
629 1 1 14.8641 14.42 2.70137
678 1 1 15.0528 14.1981 3.94678
1004 1 1 16.763 13.9169 1.08162
1046 1 1 17.9693 13.4404 2.11406
682 1 1 2.09055 15.8527 3.25903
280 1 1 0.296355 14.988 2.56258
727 1 1 1.64486 13.3234 2.09491
1514 1 1 2.60056 14.7999 2.97917
816 1 1 1.43385 15.1446 3.90226
773 1 1 4.42 15.0682 4.18635
1131 1 1 4.54454 14.1625 3.17565
1217 1 1 5.09667 16.0304 4.12634
1453 1 1 5.14612 14.3994 4.05213
1530 1 1 5.91501 16.074 3.3803
1133 1 1 6.71288 16.4583 4.1763
286 1 1 7.33373 15.5853 3.3565
1531 1 1 6.88739 15.298 4.34977
1170 1 1 8.22838 16.0735 3.24587
737 1 1 10.0036 16.3605 4.33983
1192 1 1 11.0711 16.056 2.8618
668 1 1 14.6674 15.6447 0.81011
1506 1 1 10.2536 16.3805 2.31358
1059 1 1 12.9067 14.8197 4.39693
672 1 1 13.6663 13.4217 3.12497
1427 1 1 14.6088 15.0319 3.62603
1147 1 1 14.8589 16.4693 3.82616
234 1 1 15.7591 15.9723 3.7791
1596 1 1 15.7936 14.8533 3.48805
310 1 1 16.8191 15.5868 3.17734
759 1 1 17.7512 16.2742 4.80709
2037 1 1 17.5137 14.439 2.91946
1561 1 1 0.0617463 14.2635 4.78011
791 1 1 18.135 14.7506 2.21185
873 1 1 1.88188 15.404 2.38031
1195 1 1 18.7806 16.2915 4.60105
1233 1 1 1.0365 16.8096 4.71663
1566 1 1 1.80319 18.1882 4.80663
1172 1 1 4.37782 16.6733 2.58298
1129 1 1 3.3564 15.9805 2.99787
340 1 1 4.59173 17.7154 3.05391
1134 1 1 4.14042 18.5995 3.70457
7615 1 1 5.61009 16.6936 5.21966
605 1 1 6.08818 16.9201 2.17153
19 1 1 7.2316 17.6344 2.2453
260 1 1 7.2249 17.91 3.40214
1064 1 1 9.09839 15.2271 5.43976
783 1 1 8.92727 18.3624 5.48427
1176 1 1 9.44669 15.502 4.28199
1472 1 1 13.4936 16.0219 4.77758
1226 1 1 13.0571 16.0333 2.59111
353 1 1 14.5079 15.9873 5.48846
716 1 1 15.4782 16.9664 4.90868
7923 1 1 14.2916 17.7486 4.52003
745 1 1 14.2689 17.5779 3.40492
437 1 1 16.6999 17.1642 3.58923
312 1 1 17.9009 16.537 3.78655
1999 1 1 18.3395 15.4208 4.5092
443 1 1 0.199229 15.7715 3.591
412 1 1 2.44665 17.7727 3.88004
1251 1 1 2.01094 17.1454 5.19641
487 1 1 4.80405 15.8032 2.0269
815 1 1 5.63311 17.7218 5.62933
855 1 1 6.38063 18.1061 2.72977
1140 1 1 5.34185 18.5515 3.28151
7901 1 1 5.80828 18.3433 1.90622
704 1 1 6.30569 17.3609 4.09527
1178 1 1 7.99666 2.38033 0.427799
417 1 1 8.73249 0.572077 3.58986
468 1 1 9.14739 16.7218 4.62665
1213 1 1 8.17007 18.0279 3.64729
821 1 1 10.1201 0.390637 3.51926
1186 1 1 10.9382 17.8309 4.66647
11 1 1 13.4107 17.9689 3.82579
1107 1 1 12.1095 16.5263 2.95999