ITEM: TIMESTEP
3800
ITEM: NUMBER OF ATOMS
8000
ITEM: BOX BOUNDS pp pp pp
0.0000000000000000e+00 1.8820720577620570e+01
0.0000000000000000e+00 1.8820720577620570e+01
0.0000000000000000e+00 3.7641441155241139e+01
ITEM: ATOMS id mass type x y z
917 1 1 18.7464 2.24747 37.6002
7524 1 1 3.25707 4.18765 2.4522
319 1 1 3.13627 17.5627 0.218464
770 1 1 5.78361 18.7431 36.5467
7215 1 1 2.38034 18.5117 37.3312
6 1 1 5.78032 0.192987 37.606
7644 1 1 6.81127 1.55372 1.89368
7339 1 1 6.4216 0.425648 1.36312
7620 1 1 7.54112 0.989051 0.729251
343 1 1 7.72355 3.00006 37.1039
416 1 1 7.63631 2.21834 1.18399
937 1 1 9.56973 2.7293 2.00586
780 1 1 10.1519 17.301 2.46206
15 1 1 11.3123 3.06557 1.01786
7661 1 1 8.65389 0.379737 1.04034
7667 1 1 9.25903 2.22075 0.855439
785 1 1 14.3026 17.5045 1.36572
346 1 1 9.53336 0.648042 0.402341
22 1 1 10.4407 0.605143 1.46726
7619 1 1 11.5498 0.29853 2.96083
746 1 1 13.3995 0.679443 0.760223
7665 1 1 11.5713 1.29272 36.6377
7601 1 1 18.1664 0.88303 0.607345
77 1 1 0.214383 1.63033 36.2729
7992 1 1 18.0584 2.88326 1.23427
356 1 1 17.4928 0.482984 1.71841
761 1 1 2.07449 3.11275 0.369829
7608 1 1 2.0061 1.02258 37.3963
408 1 1 2.50552 2.77178 35.1628
7631 1 1 4.47622 1.37402 1.51821
89 1 1 5.33152 3.30645 3.14214
857 1 1 6.12604 1.59641 3.14382
849 1 1 3.68577 1.70629 0.782484
935 1 1 4.74568 1.40901 36.9696
533 1 1 9.32019 4.54859 0.877626
371 1 1 7.233 4.47324 37.3357
57 1 1 7.32677 2.28889 36.0642
7298 1 1 5.79144 2.29292 2.48985
55 1 1 8.48426 2.64688 1.61614
897 1 1 10.1278 3.90078 37.074
1687 1 1 9.16365 3.47057 1.21944
838 1 1 9.77085 2.15253 3.17695
387 1 1 12.5609 2.17143 2.1967
1270 1 1 11.4346 1.40791 1.26019
116 1 1 11.1045 2.11246 35.7468
65 1 1 13.1569 1.8061 0.390598
39 1 1 11.4703 2.35215 37.1788
431 1 1 16.0269 2.75878 0.111479
109 1 1 17.6851 2.5871 0.112379
7996 1 1 0.493685 0.412335 0.674165
430 1 1 0.547748 1.28194 2.49899
479 1 1 18.641 2.98917 36.9032
841 1 1 0.277131 1.87192 1.46572
1289 1 1 3.97026 2.07647 37.345
7678 1 1 1.87435 2.03932 0.192406
37 1 1 2.35448 2.86774 36.3757
885 1 1 4.94578 2.85867 1.92025
521 1 1 6.40383 2.53369 36.7213
900 1 1 4.84587 2.55623 37.5178
455 1 1 6.78445 3.91907 1.76031
494 1 1 9.16838 3.76773 36.5587
7657 1 1 8.4736 4.50671 0.165673
461 1 1 10.2674 2.60548 1.21792
28 1 1 11.3467 4.22936 0.956656
623 1 1 11.3336 4.11306 37.4615
505 1 1 12.9956 2.76363 1.08999
7746 1 1 14.0966 3.56178 37.1213
72 1 1 16.294 3.9525 1.72546
7756 1 1 18.5898 6.37644 0.693189
7950 1 1 16.9017 2.49095 37.0026
73 1 1 16.508 2.51592 0.987667
442 1 1 0.345062 3.46728 37.5211
127 1 1 1.5839 4.58691 36.0388
729 1 1 2.03291 5.71653 0.21933
7249 1 1 1.14821 6.02896 0.66705
7643 1 1 1.86086 6.23405 1.94418
933 1 1 2.89695 2.67225 37.5159
485 1 1 4.55511 6.35499 36.0196
7700 1 1 7.44981 4.84886 0.897566
209 1 1 6.10807 4.37961 0.541968
52 1 1 6.37172 6.78347 0.0384639
7371 1 1 3.92108 5.01527 0.808549
497 1 1 7.88604 6.45154 0.906422
532 1 1 9.84098 5.1481 37.4898
575 1 1 9.19732 4.8551 36.7392
462 1 1 9.46329 7.09738 37.0053
537 1 1 10.5321 4.76141 0.469709
224 1 1 11.3352 5.41124 1.42749
633 1 1 9.69414 5.5089 0.888835
146 1 1 13.4071 6.12235 0.307419
152 1 1 14.4582 4.00318 0.223912
476 1 1 14.5419 5.7832 0.24312
7392 1 1 13.2849 3.76803 36.3786
80 1 1 17.3268 4.12749 36.0012
7236 1 1 17.3025 5.43533 0.906839
517 1 1 0.0371992 4.23375 35.3093
554 1 1 16.6415 6.86949 2.32714
7603 1 1 16.3082 5.15156 37.5042
520 1 1 0.381004 5.4187 0.536033
7715 1 1 18.5948 5.31135 1.43474
88 1 1 1.4599 6.78526 0.0965739
444 1 1 17.4104 8.49721 0.941977
999 1 1 17.5386 6.73872 0.734281
524 1 1 2.69052 7.24856 37.0235
440 1 1 3.20662 6.681 0.44518
7239 1 1 0.31908 6.44821 37.4343
10 1 1 7.90434 7.16909 4.13647
445 1 1 4.26073 6.30213 2.20322
99 1 1 8.47697 9.65546 35.5181
534 1 1 6.92431 7.80656 37.1765
7699 1 1 8.25771 4.37206 36.7415
7423 1 1 8.61428 2.71258 2.85805
502 1 1 12.1318 4.65302 36.7513
570 1 1 10.4163 6.81997 36.5287
7821 1 1 11.3958 7.08666 36.9653
989 1 1 14.5356 5.99982 36.8479
578 1 1 14.8694 6.73804 0.456969
7591 1 1 13.8412 7.01697 37.561
7798 1 1 14.5593 7.31149 2.1683
1000 1 1 15.0128 4.70828 0.673731
7359 1 1 17.1688 6.97571 37.462
1396 1 1 16.1255 10.6985 0.641587
559 1 1 17.4974 9.33342 0.475303
74 1 1 17.5464 7.65858 36.8331
195 1 1 18.3492 6.85463 37.0889
1329 1 1 18.632 8.60803 36.8397
44 1 1 0.534425 6.57264 36.3161
1409 1 1 2.40988 6.79011 1.02369
128 1 1 2.66477 11.8469 35.9347
92 1 1 4.97046 8.37639 36.7655
81 1 1 3.77667 8.40407 1.20212
446 1 1 7.81989 6.45442 3.15995
1369 1 1 2.13417 8.60066 37.4419
983 1 1 5.72399 8.691 1.63629
95 1 1 7.56936 8.85643 36.515
607 1 1 10.719 7.91841 37.1447
619 1 1 9.68937 9.39496 0.0384966
7855 1 1 12.0545 6.22414 36.8931
1067 1 1 11.761 9.0215 0.958439
7743 1 1 9.82998 7.48282 0.286027
186 1 1 13.4291 8.59897 0.0389233
7800 1 1 16.6338 6.83851 36.448
552 1 1 15.4284 5.94442 37.3352
634 1 1 18.4118 5.52571 37.2859
549 1 1 16.4821 7.77312 0.0237675
78 1 1 14.4271 8.82268 0.0181139
1314 1 1 18.339 9.62683 1.03715
7395 1 1 15.8581 11.7563 0.355482
7641 1 1 18.3367 6.75673 4.01329
1323 1 1 1.55937 7.62849 1.09634
7879 1 1 0.86031 8.2587 36.1285
239 1 1 2.86311 8.81297 1.25047
153 1 1 2.67029 7.96197 1.53657
1048 1 1 5.13891 10.3818 2.14561
197 1 1 3.46934 10.584 0.331953
222 1 1 5.73599 8.88096 0.218596
138 1 1 7.74257 7.54124 2.83798
7774 1 1 7.88832 11.0606 0.782007
1461 1 1 6.46525 8.51533 0.776044
7772 1 1 9.1823 9.36723 1.05737
1109 1 1 10.0336 10.9673 37.2987
7751 1 1 10.699 8.74443 0.102538
303 1 1 12.1028 8.76198 3.06754
665 1 1 12.7006 9.22562 36.7249
7432 1 1 12.1985 9.60757 1.67847
265 1 1 11.9877 10.9897 36.3303
7466 1 1 11.4109 9.30073 35.8576
230 1 1 15.0811 9.38236 36.7024
276 1 1 15.3293 10.6369 37.517
557 1 1 16.6048 12.0944 37.3588
4 1 1 16.051 12.8327 0.174248
636 1 1 15.516 8.64004 37.5675
7758 1 1 16.4536 8.5018 1.59142
1450 1 1 18.4819 12.0618 1.88813
1521 1 1 0.715214 11.1483 1.59256
598 1 1 3.89451 13.452 0.00993803
165 1 1 18.5777 11.1615 37.3304
1365 1 1 2.90222 11.3806 0.699377
7847 1 1 4.78578 10.4558 0.214272
7734 1 1 8.43607 10.1532 0.20352
536 1 1 6.94187 10.5707 2.09303
374 1 1 8.16308 10.1291 1.6916
976 1 1 11.6814 12.7133 0.308902
228 1 1 10.6308 11.0458 0.665166
1063 1 1 13.2762 10.6516 36.0686
7912 1 1 11.1324 11.1106 2.84776
7428 1 1 14.5183 11.0506 0.877717
308 1 1 13.8424 10.6444 0.214789
235 1 1 12.4264 10.822 2.96649
236 1 1 17.134 14.211 1.63368
7875 1 1 16.4433 12.9637 36.0507
1389 1 1 15.3595 12.825 1.95593
192 1 1 17.905 13.1291 2.5317
7804 1 1 17.3324 9.66517 1.48363
962 1 1 18.5582 11.1662 35.3806
281 1 1 17.9625 9.75002 37.1986
84 1 1 18.1288 9.75884 2.35103
1154 1 1 1.28673 14.0656 0.590613
7880 1 1 0.939372 11.4039 0.198749
365 1 1 4.01959 10.9433 1.09304
1089 1 1 5.12669 12.4708 1.51777
613 1 1 5.66402 12.9207 2.81871
7499 1 1 5.73168 12.4182 0.671606
7808 1 1 8.88499 11.1145 0.181522
687 1 1 6.29662 12.9766 1.22385
1098 1 1 7.95966 9.07067 2.04723
296 1 1 8.1961 13.1552 1.01834
660 1 1 9.38677 12.0627 0.136359
705 1 1 12.7687 13.4074 0.115617
269 1 1 12.0971 12.9867 2.3549
7903 1 1 14.3496 14.6803 0.443373
273 1 1 13.0197 12.0141 0.897888
639 1 1 17.2551 14.1117 4.40964
1078 1 1 15.9684 12.1871 1.22821
1040 1 1 17.4803 14.0378 37.1305
7525 1 1 17.8548 11.8685 0.192588
204 1 1 17.1881 14.8386 0.444577
404 1 1 3.27843 13.3166 0.996727
7835 1 1 1.97052 11.8021 37.6065
643 1 1 3.38846 15.0032 1.15625
1010 1 1 6.18535 13.6829 3.18145
287 1 1 6.19407 12.3912 37.4181
567 1 1 7.00322 11.8896 36.7134
342 1 1 7.1652 13.4386 1.12975
344 1 1 7.98117 14.6793 2.69634
1573 1 1 8.50086 13.0638 2.0778
697 1 1 11.276 11.5541 0.0462386
602 1 1 11.1793 14.1061 1.12208
982 1 1 13.165 16.5122 37.5111
379 1 1 12.9992 14.8038 0.617273
7834 1 1 12.869 12.1551 2.01963
7440 1 1 13.3127 12.1369 36.5422
674 1 1 14.9422 13.2313 0.178059
7561 1 1 16.1085 15.0308 1.48721
7925 1 1 17.2596 12.8079 1.65763
7844 1 1 15.5964 16.2006 2.18989
683 1 1 15.8676 13.1571 1.07517
7924 1 1 18.7609 10.1691 0.0127229
397 1 1 0.719124 14.7685 37.3937
1125 1 1 1.73542 16.2908 37.0363
648 1 1 2.38789 14.9804 1.11027
7888 1 1 3.91463 11.858 3.79734
700 1 1 7.21205 16.8126 1.18824
332 1 1 5.20865 17.4187 1.56193
7930 1 1 6.663 16.6825 0.264787
7937 1 1 7.36693 14.6772 0.350543
743 1 1 8.11416 13.3539 36.5821
249 1 1 9.87279 15.6361 1.63376
7858 1 1 9.34404 15.9826 0.820098
658 1 1 12.4388 16.4868 0.641405
7945 1 1 8.98743 14.773 3.15214
666 1 1 14.0615 15.2147 37.1347
7551 1 1 14.7705 13.9755 1.73481
749 1 1 14.1954 16.7199 36.9102
7991 1 1 13.5108 15.7882 36.5534
314 1 1 17.267 16.0792 0.122325
328 1 1 17.8073 18.2381 1.97545
7040 1 1 17.2101 17.0762 1.43642
797 1 1 0.779304 16.3932 0.491935
732 1 1 3.91616 17.7205 36.8879
7650 1 1 0.702486 17.3667 36.3638
721 1 1 4.55458 17.7679 0.726498
1128 1 1 4.13964 15.1256 2.28446
771 1 1 3.40532 17.7942 1.3543
85 1 1 5.04222 15.8271 36.3725
775 1 1 8.71914 17.0423 37.5589
1541 1 1 7.32626 0.0434451 3.82778
7531 1 1 7.05185 18.406 1.9307
698 1 1 8.95824 16.9093 2.45393
655 1 1 8.88359 17.0226 4.04144
304 1 1 11.4089 15.0465 1.57827
7983 1 1 9.08492 15.0199 1.13698
7994 1 1 11.2125 15.9756 1.08504
675 1 1 13.6352 17.7443 37.3967
306 1 1 14.0953 16.9068 0.435887
7188 1 1 14.5992 0.097258 0.664836
7547 1 1 14.1951 18.0184 36.4457
7990 1 1 12.375 0.2379 0.564099
7881 1 1 14.6498 16.0509 37.6236
7228 1 1 16.7857 17.8835 1.54396
351 1 1 16.181 16.3863 0.0912054
7635 1 1 0.352551 17.7885 37.3555
7280 1 1 2.43156 0.787048 2.15453
7998 1 1 2.64709 18.6619 0.774048
731 1 1 1.33042 18.4391 36.5354
7972 1 1 1.76741 16.7214 1.14469
448 1 1 4.90371 18.2014 36.8995
7971 1 1 5.24914 17.2969 -0.00379552
363 1 1 5.57775 15.4568 37.3051
726 1 1 6.10823 18.1337 0.234961
60 1 1 6.99204 18.7543 0.397255
7539 1 1 6.61938 2.78172 0.880333
419 1 1 7.65056 0.488518 1.65531
67 1 1 8.80884 0.793241 37.338
382 1 1 11.5642 18.7521 4.43583
829 1 1 8.19016 18.4009 1.82557
742 1 1 9.73896 0.101724 36.6707
7938 1 1 10.6065 0.215579 0.173891
6836 1 1 13.7479 17.5628 35.3972
31 1 1 11.4473 17.2973 0.873367
7948 1 1 13.6876 18.1021 2.64422
7997 1 1 12.374 1.05153 1.18101
7622 1 1 15.1214 16.6613 0.909886
352 1 1 15.3744 17.9616 0.631974
7515 1 1 14.6702 17.3086 2.63401
395 1 1 15.621 17.9699 36.6734
7552 1 1 14.6833 2.22962 0.834444
752 1 1 17.2311 18.5228 4.29984
157 1 1 1.87363 0.176265 2.8388
40 1 1 18.7228 0.920095 4.25066
321 1 1 1.45661 2.00787 1.36592
1208 1 1 3.37028 0.709075 0.699317
41 1 1 5.98078 0.0270151 2.84508
764 1 1 4.325 0.915919 0.189599
1168 1 1 5.74417 1.14179 2.26651
774 1 1 5.20797 18.6506 0.736386
385 1 1 7.92932 1.89488 2.59658
850 1 1 10.1113 2.14051 4.44577
7626 1 1 9.14411 1.81532 2.4457
422 1 1 12.5725 0.548003 2.03224
824 1 1 13.6415 0.401626 2.31423
818 1 1 11.0495 16.771 3.27976
1143 1 1 15.2293 1.58077 3.20072
784 1 1 15.6569 1.3143 2.16248
389 1 1 14.4939 18.8086 3.04032
798 1 1 15.3154 17.3546 3.52999
1106 1 1 16.905 1.37019 1.16622
1272 1 1 15.2555 0.278358 37.5465
115 1 1 18.0444 0.983141 2.47678
835 1 1 0.161663 0.741711 1.58943
33 1 1 18.0907 16.8953 37.3198
833 1 1 17.9699 1.40731 1.49617
324 1 1 2.63851 1.53015 1.47422
35 1 1 18.7156 2.57081 3.29243
362 1 1 2.97439 4.31323 1.48865
47 1 1 2.25495 1.95109 2.47162
491 1 1 3.66948 1.72136 2.39141
7616 1 1 4.41464 0.688718 2.7917
765 1 1 6.33809 3.71815 2.78007
7219 1 1 7.08137 2.53859 1.94663
93 1 1 6.72605 3.96321 4.03741
7698 1 1 8.23972 5.54986 2.71739
908 1 1 10.7614 2.33452 2.09737
470 1 1 10.9969 3.71793 4.51205
473 1 1 10.52 3.48546 1.69424
869 1 1 10.6714 1.43365 2.7849
876 1 1 11.635 2.66191 1.96605
30 1 1 13.6636 3.64607 0.991071
511 1 1 12.0074 2.18564 0.806416
32 1 1 13.5159 1.51637 2.15926
787 1 1 15.1649 1.87371 37.427
478 1 1 17.3008 3.66561 1.29997
514 1 1 16.8789 3.74797 2.70235
1675 1 1 18.3588 3.86775 1.09723
82 1 1 1.19095 3.98588 2.33921
899 1 1 1.19956 2.19452 2.48111
87 1 1 2.28335 4.45653 0.578657
488 1 1 3.60255 3.96726 3.55188
449 1 1 1.63399 7.54802 2.44469
475 1 1 3.01424 3.56783 0.532121
889 1 1 4.71278 1.68055 2.61617
454 1 1 3.79155 4.81189 37.3125
376 1 1 8.01423 4.8228 1.95681
504 1 1 6.03994 3.1455 4.06113
14 1 1 6.60927 4.91343 3.41323
500 1 1 10.6947 2.77732 4.00211
139 1 1 11.935 1.27446 2.66673
460 1 1 11.2196 3.93082 2.56615
556 1 1 12.9838 4.6018 1.3067
7636 1 1 14.2922 2.98743 1.60578
34 1 1 15.3579 2.86407 1.6462
506 1 1 13.9039 2.6957 0.280677
113 1 1 14.6523 3.78664 2.4423
786 1 1 15.6446 3.93676 2.5896
480 1 1 16.9599 3.39521 0.222553
155 1 1 0.934802 2.71518 0.878829
1232 1 1 1.13994 3.70942 0.979681
1751 1 1 17.61 4.56189 2.11565
523 1 1 2.56073 5.60298 2.45064
441 1 1 18.4844 8.01629 2.15343
1290 1 1 2.78976 5.5718 1.08565
1337 1 1 4.91196 4.29916 1.32609
1254 1 1 6.69417 6.47318 5.46521
102 1 1 8.89767 3.56872 0.253887
945 1 1 7.70439 3.85127 1.2718
1295 1 1 7.00074 4.52511 2.53374
7611 1 1 10.2094 3.79489 0.688462
814 1 1 7.3052 3.28827 2.63398
217 1 1 10.4827 3.06292 2.74805
909 1 1 11.8228 7.07833 1.78907
978 1 1 12.2299 4.39586 2.19985
538 1 1 12.47 5.54772 1.52833
150 1 1 13.9928 4.65812 1.16648
134 1 1 14.4562 6.914 3.28525
420 1 1 13.7577 3.80143 1.99784
68 1 1 14.725 4.97303 2.17573
471 1 1 15.1501 3.9199 1.67279
944 1 1 13.6428 6.89587 0.912637
7986 1 1 15.9339 3.627 0.636512
594 1 1 16.0499 6.87125 3.6331
550 1 1 16.5873 4.96992 1.79085
519 1 1 17.5722 6.20412 1.87162
1315 1 1 0.0434852 4.3396 1.83996
522 1 1 0.758359 6.85716 2.32794
1285 1 1 2.52056 6.64073 3.05765
7718 1 1 2.29391 7.80441 3.51807
922 1 1 18.2583 7.71349 1.13071
637 1 1 3.80133 6.71085 3.14552
886 1 1 2.81197 7.99624 0.395107
90 1 1 4.21158 8.64818 3.15988
53 1 1 5.89766 9.34259 3.10229
171 1 1 9.00037 6.39004 1.91656
1334 1 1 3.95142 7.58915 5.05511
1774 1 1 4.48512 7.70363 2.67901
530 1 1 8.07127 7.42636 36.5529
91 1 1 10.1199 7.80987 2.29219
616 1 1 9.76414 4.42682 1.82973
177 1 1 10.0013 7.97652 1.24577
973 1 1 10.0875 6.48822 2.34943
579 1 1 11.9197 6.2861 0.757561
551 1 1 10.841 7.25899 0.529541
1036 1 1 12.3736 7.11158 2.6814
231 1 1 14.3946 9.47152 1.88913
546 1 1 14.6851 6.41872 1.46443
196 1 1 15.8162 5.76637 36.3903
979 1 1 17.2834 7.55925 1.33798
881 1 1 16.74 4.42475 0.901262
1360 1 1 16.6694 6.53407 1.1756
808 1 1 1.02919 6.61778 1.46374
1038 1 1 17.2229 7.9375 2.34292
481 1 1 18.6331 7.00785 1.90793
1806 1 1 0.8339 7.91253 37.0988
1488 1 1 0.98653 8.35013 1.92033
131 1 1 3.20735 8.24374 3.05148
645 1 1 4.8657 8.29487 0.145763
1045 1 1 3.70164 8.05029 2.13214
611 1 1 6.49378 7.21154 3.12409
1401 1 1 4.04695 6.89964 37.4418
1339 1 1 5.73855 6.04902 4.78224
1019 1 1 9.78771 7.24602 3.32875
647 1 1 8.04152 9.16732 37.46
1327 1 1 8.93714 7.66846 0.70832
498 1 1 10.5391 7.94055 3.22699
140 1 1 11.0834 8.15545 1.1451
1023 1 1 14.2099 8.81393 1.11444
1429 1 1 12.7168 8.00194 2.79502
7714 1 1 15.6103 6.15403 1.63093
958 1 1 15.8557 6.99211 0.592014
563 1 1 16.4567 8.71951 0.483045
200 1 1 17.9147 8.75842 1.72308
191 1 1 0.687108 8.79783 0.166203
124 1 1 3.07743 9.02637 0.0652607
241 1 1 1.1874 9.07506 1.05658
564 1 1 1.98996 9.84043 1.04252
7684 1 1 3.93233 9.10746 36.9984
1366 1 1 6.00822 11.2938 2.01202
1287 1 1 2.83156 11.0632 3.92231
164 1 1 3.09015 9.95938 1.18324
357 1 1 6.73749 8.88519 2.18521
7841 1 1 4.40985 7.60442 0.9212
215 1 1 6.94393 9.32151 1.2631
566 1 1 6.69651 7.93045 2.40139
890 1 1 7.37742 7.72097 1.55212
178 1 1 10.5857 8.71001 2.26452
1417 1 1 8.11523 9.3605 0.941637
142 1 1 11.1768 9.76067 1.49362
1105 1 1 10.3843 9.10414 1.14161
7748 1 1 8.77679 8.73092 0.295733
7827 1 1 9.9095 9.80617 3.38464
626 1 1 14.3105 7.60487 1.0103
188 1 1 15.4845 9.20162 1.05747
916 1 1 13.923 10.3097 1.90994
568 1 1 0.224306 8.75522 1.36493
202 1 1 1.81058 10.8022 0.866518
1053 1 1 2.92648 9.82061 2.86101
233 1 1 4.56861 11.3881 2.13903
1003 1 1 4.8356 9.40954 0.205113
925 1 1 5.93436 9.94934 1.76296
1061 1 1 8.5069 9.45945 3.25296
1420 1 1 9.72643 10.3798 0.59597
7817 1 1 6.51666 13.3516 0.208175
615 1 1 7.95082 10.6899 2.68262
333 1 1 8.94861 11.4088 3.30903
7862 1 1 9.93591 9.58419 1.94029
7780 1 1 11.0735 10.8588 1.68935
624 1 1 9.79431 7.79101 4.19471
257 1 1 10.0259 11.4242 1.47088
1076 1 1 13.196 9.96441 0.878937
614 1 1 10.9295 11.2986 4.0938
261 1 1 11.912 11.6379 2.14709
600 1 1 13.9595 12.0037 3.22971
2238 1 1 16.579 13.28 2.60207
240 1 1 17.0976 12.0008 4.44539
270 1 1 16.8623 11.58 1.40556
7921 1 1 1.9433 11.6597 1.57511
242 1 1 1.19234 9.42919 2.22384
7928 1 1 3.43841 10.7812 1.90825
968 1 1 18.0109 13.4213 4.85621
358 1 1 6.07884 10.3343 2.66213
288 1 1 2.75858 11.7832 2.10921
7843 1 1 6.02918 11.646 2.98644
337 1 1 7.73368 10.013 5.18271
1532 1 1 5.80909 11.6126 4.17465
574 1 1 7.84564 12.1487 4.3305
216 1 1 9.05128 9.73011 4.15237
691 1 1 6.55871 12.0785 2.1414
16 1 1 7.49584 13.3481 2.31691
256 1 1 10.2743 12.6118 1.17116
259 1 1 11.2363 12.9615 1.31507
694 1 1 10.4163 10.1806 2.59154
254 1 1 11.7429 12.2578 3.3771
1069 1 1 13.491 13.3772 2.59013
592 1 1 14.139 12.6485 36.9646
1074 1 1 14.92 11.5935 37.5571
271 1 1 13.5704 11.9425 0.0508627
7840 1 1 15.0917 12.2653 0.815766
7838 1 1 14.6634 12.1507 2.17586
1035 1 1 18.1286 14.9663 0.0387258
677 1 1 18.2865 13.179 37.369
1001 1 1 1.73029 11.3152 2.53676
720 1 1 18.5289 10.8578 0.976541
7442 1 1 0.718889 14.5383 36.2281
758 1 1 17.1941 13.7483 0.357614
7964 1 1 0.85725 14.7471 1.31426
7482 1 1 4.24919 12.9805 1.18464
685 1 1 4.95356 13.9732 2.58754
1529 1 1 4.69853 14.2099 1.24326
1081 1 1 5.33823 12.3278 3.66846
696 1 1 4.56295 15.3535 1.1661
7975 1 1 7.21531 14.163 3.09848
740 1 1 9.00916 15.8657 2.17877
7856 1 1 8.0173 16.1926 4.12831
341 1 1 8.22424 14.2152 4.53463
213 1 1 9.02775 13.9244 1.78112
7864 1 1 9.9666 14.7928 0.587383
1908 1 1 9.88506 14.0746 2.16031
229 1 1 10.0841 13.7389 1.06339
7829 1 1 13.553 13.7053 1.42711
747 1 1 14.1803 13.1719 3.36238
277 1 1 11.2663 13.3912 2.99971
317 1 1 12.2559 15.0671 3.44099
278 1 1 17.3004 15.0518 2.25706
7480 1 1 14.1826 12.7474 1.42927
1474 1 1 18.6418 16.9288 2.11564
724 1 1 1.24917 14.6362 3.43013
7920 1 1 15.599 15.2369 2.91049
769 1 1 0.240175 14.4132 3.74806
282 1 1 0.867713 14.1082 2.53378
325 1 1 2.79926 15.6694 2.22167
243 1 1 3.77058 13.7085 2.78926
1136 1 1 5.79059 14.1471 1.78235
1526 1 1 2.62519 16.572 2.70342
411 1 1 6.31603 15.6871 2.48813
373 1 1 6.87572 15.3641 1.64668
1145 1 1 6.51051 15.6326 0.454331
7214 1 1 6.96663 16.4434 2.4605
7543 1 1 8.55092 13.8895 3.14181
1533 1 1 12.2922 16.5278 1.65665
736 1 1 11.242 15.122 0.479857
662 1 1 11.6427 16.0102 2.78698
1151 1 1 12.085 15.2265 2.25966
699 1 1 11.574 13.8118 2.08063
670 1 1 14.6752 15.7094 2.26571
1153 1 1 13.3442 15.209 2.77562
7870 1 1 15.8064 17.4465 1.90058
590 1 1 15.991 13.9486 1.80943
1199 1 1 18.6834 13.9131 0.415307
394 1 1 18.5865 15.38 3.46503
7887 1 1 0.404961 17.523 3.16774
399 1 1 1.2575 18.8355 2.03871
1198 1 1 0.594848 18.0123 1.70084
330 1 1 3.84345 15.3266 3.89149
812 1 1 3.54408 16.8688 37.2538
370 1 1 3.86821 15.9767 1.71839
7573 1 1 5.39039 15.2668 3.37746
7610 1 1 7.0599 17.77 0.0508995
29 1 1 7.85716 1.02015 3.20512
777 1 1 5.42459 17.9045 3.43111
690 1 1 7.43846 17.9437 1.18453
381 1 1 8.14002 17.2609 1.74292
1114 1 1 9.78707 16.7946 3.88013
701 1 1 10.2429 17.99 4.73407
1142 1 1 13.3351 17.3099 0.998461
7913 1 1 14.5454 18.5296 1.67201
7125 1 1 15.4193 16.3431 3.34603
709 1 1 15.9196 0.193971 5.22126
1158 1 1 1.63641 0.489246 1.23841
837 1 1 14.3271 16.3797 1.59313
766 1 1 17.1254 18.6219 2.6152
12 1 1 18.2365 17.5531 1.15996
436 1 1 0.970171 18.3048 3.51978
7651 1 1 2.45236 17.4444 1.9583
336 1 1 2.69685 18.4369 1.82331
5 1 1 4.96066 18.2818 2.07719
1301 1 1 6.30955 18.1383 1.29778
27 1 1 8.15963 0.924583 4.3149
779 1 1 8.95681 0.842013 2.01993
820 1 1 9.78387 18.7852 1.99481
7628 1 1 9.10885 17.7489 4.85024
7627 1 1 9.58259 0.18693 3.16924
316 1 1 12.2085 18.1353 2.07399
64 1 1 13.6529 17.1307 2.07614
7478 1 1 14.7405 0.781338 2.02436
7872 1 1 13.7118 15.4052 1.78568
7155 1 1 15.6359 18.4773 3.05171
1110 1 1 17.9058 -0.00395251 3.53241
364 1 1 16.3974 0.314839 2.02573
753 1 1 17.0541 17.4383 2.46565
1954 1 1 0.980071 16.4359 3.53165
843 1 1 3.24176 18.461 3.52008
853 1 1 2.42719 17.9487 4.52723
292 1 1 4.82849 0.504495 1.84224
1932 1 1 3.63195 0.136168 1.53332
1260 1 1 1.10497 0.293075 5.61643
772 1 1 4.65038 18.7237 4.79804
452 1 1 5.52688 0.950024 4.18359
861 1 1 6.35712 0.527812 3.69685
734 1 1 6.18374 2.19936 4.66392
17 1 1 6.98412 2.02832 2.89117
1180 1 1 9.41021 1.18764 4.18657
410 1 1 7.95263 17.7261 3.85472
906 1 1 11.0516 1.35403 5.21071
1138 1 1 13.0421 18.6301 3.41788
7984 1 1 14.2722 17.1007 3.57104
26 1 1 12.9428 0.988432 3.52434
792 1 1 14.2949 1.02335 6.69544
949 1 1 15.7843 2.08625 4.51674
433 1 1 15.678 18.5359 1.78894
702 1 1 14.6515 0.710455 5.01915
800 1 1 16.1399 1.12165 3.36583
1640 1 1 17.7096 1.82072 3.65716
794 1 1 18.7878 1.86943 4.72296
1160 1 1 1.48943 1.14053 2.18761
1670 1 1 16.5028 1.88344 2.54275
1644 1 1 0.389984 3.35287 3.02996
1637 1 1 18.6765 6.17762 2.76234
913 1 1 2.1859 3.60453 1.32679
1201 1 1 2.63999 2.68342 1.19004
802 1 1 2.0296 0.751198 3.80962
1250 1 1 6.8339 0.401361 2.61859
1130 1 1 8.81501 1.9588 3.39229
863 1 1 7.19797 1.25926 4.22062
854 1 1 9.23806 2.17357 6.39912
810 1 1 8.45954 2.43321 5.35004
71 1 1 11.2068 1.72077 3.98801
1345 1 1 11.429 0.961774 6.01258
7632 1 1 13.4618 2.14383 3.15877
1377 1 1 11.839 3.23094 5.19434
7779 1 1 11.4287 2.20008 3.07833
151 1 1 13.976 0.903048 3.23967
1597 1 1 12.8583 3.11939 3.60512
465 1 1 14.4035 2.17373 3.90018
1713 1 1 14.4095 1.16877 1.20042
910 1 1 15.2509 3.26101 4.38492
1265 1 1 16.2443 2.93915 4.22586
2432 1 1 16.8506 3.00851 1.94163
2197 1 1 16.8874 5.43263 3.03446
2029 1 1 18.1286 3.30385 2.24326
852 1 1 3.34307 7.38747 1.1132
883 1 1 1.33559 8.28294 5.01191
1241 1 1 0.227122 7.7152 4.18667
450 1 1 2.41148 3.97739 3.19673
7697 1 1 6.05897 3.04369 0.00872157
1210 1 1 3.64701 1.71557 4.06071
1206 1 1 5.10156 3.58687 4.38241
7607 1 1 5.43249 2.34217 3.8808
1299 1 1 4.45998 5.00136 4.83131
1181 1 1 5.77466 4.1828 3.65029
104 1 1 4.98434 3.80635 5.38835
7 1 1 9.70641 3.70319 2.62153
971 1 1 9.40485 3.26812 3.62843
588 1 1 11.8542 4.49519 3.19283
862 1 1 12.9991 3.79108 2.80979
427 1 1 13.3631 2.85438 2.19043
1196 1 1 14.4538 1.97412 2.41388
558 1 1 13.9878 3.47331 4.17908
474 1 1 16.0037 2.95608 2.5359
112 1 1 16.3148 2.26996 3.51181
603 1 1 2.60198 5.03256 3.62064
1673 1 1 2.92986 7.7388 5.59564
959 1 1 18.265 7.12709 3.02533
887 1 1 3.42514 5.44045 3.07666
98 1 1 1.99499 4.69236 1.90186
1280 1 1 4.36253 4.11447 2.42638
767 1 1 4.63179 4.42986 3.35774
1340 1 1 6.2024 4.3229 5.00655
1739 1 1 8.69199 3.83305 2.08258
1310 1 1 8.6862 5.40906 1.10458
938 1 1 10.8577 5.53711 2.46568
1385 1 1 10.0435 3.75887 5.85714
1714 1 1 11.527 6.71337 3.49019
1194 1 1 16.3356 5.46074 0.999326
912 1 1 13.9322 3.01392 3.29082
7754 1 1 13.9915 4.34495 2.93509
515 1 1 14.7106 3.97989 3.56537
156 1 1 15.8558 3.91441 3.53844
1316 1 1 15.7592 5.09249 2.85976
1033 1 1 16.1064 4.71957 4.53533
120 1 1 1.65392 2.99668 4.93177
1685 1 1 0.0967617 3.85731 6.22817
486 1 1 0.10769 6.72927 5.09315
966 1 1 3.7827 8.46222 5.79868
884 1 1 1.35114 4.67361 4.03443
848 1 1 2.12672 6.04043 4.30477
1769 1 1 5.78468 6.48557 3.16605
1780 1 1 5.11103 6.48228 6.35623
1373 1 1 6.00217 5.30376 2.35974
975 1 1 5.95879 7.13129 5.85245
1296 1 1 6.26262 7.9539 5.2361
1026 1 1 9.2733 6.50114 0.797161
1331 1 1 7.88248 4.45663 3.88521
1413 1 1 10.4416 4.38987 3.42582
555 1 1 9.01094 7.40558 2.53298
1374 1 1 9.52168 5.31314 2.17741
1066 1 1 9.81192 5.70064 3.25068
553 1 1 9.29835 4.60813 2.94775
7712 1 1 11.6397 7.81897 2.37115
509 1 1 13.2909 6.37232 4.30564
1350 1 1 13.3905 6.86076 2.74012
995 1 1 13.7739 6.02851 1.72257
870 1 1 15.0932 7.48615 5.34801
193 1 1 15.4216 7.03327 2.75138
593 1 1 15.9183 8.02352 3.76885
1443 1 1 17.2887 7.17925 3.18618
560 1 1 18.0319 7.64106 3.87743
483 1 1 1.52522 4.8283 2.92021
7721 1 1 17.2418 8.20906 3.3552
489 1 1 1.2429 7.27075 4.52053
531 1 1 2.60416 10.8714 2.72632
1414 1 1 2.76622 8.92636 5.70641
46 1 1 3.36537 9.3183 4.87365
1330 1 1 2.72019 7.31312 2.30781
1041 1 1 4.97938 9.77243 3.20512
936 1 1 3.51656 5.8889 3.97523
580 1 1 5.60182 8.02079 2.72
180 1 1 6.78488 7.16285 4.35077
1302 1 1 6.65143 5.21191 4.51878
7850 1 1 9.10412 8.08648 4.96872
865 1 1 6.25303 7.38213 7.15773
1017 1 1 9.34087 10.5551 1.58291
1308 1 1 7.47918 5.7482 3.72371
628 1 1 12.2872 9.22812 4.05367
606 1 1 12.2852 7.38923 3.73711
108 1 1 14.8325 8.51197 4.02377
1020 1 1 11.1495 8.20976 3.99515
1425 1 1 10.4978 6.45433 6.08747
942 1 1 11.5367 4.9094 6.47787
1037 1 1 15.4054 7.99143 1.4665
1441 1 1 15.241 7.15889 4.24164
960 1 1 16.7998 7.46742 4.15965
1353 1 1 16.1321 7.83434 2.55597
2357 1 1 17.1023 9.24065 2.41753
997 1 1 17.4638 10.3654 3.08818
1757 1 1 17.8924 8.79642 3.93476
1802 1 1 0.252877 9.07854 2.43601
315 1 1 1.83072 11.7454 3.75055
1034 1 1 18.5599 8.29302 3.29194
1442 1 1 0.565041 7.65617 3.15591
1322 1 1 0.548731 9.56221 3.8515
1724 1 1 3.57781 9.39441 3.72016
1085 1 1 6.90909 9.74097 3.19807
130 1 1 8.87789 7.34104 3.82596
539 1 1 9.09349 8.47655 1.47321
653 1 1 7.57026 8.56052 0.554147
649 1 1 10.7314 7.39511 4.24799
587 1 1 8.59372 8.38204 2.94755
586 1 1 9.20427 9.09061 4.93097
232 1 1 9.74281 8.69376 3.37387
136 1 1 11.4635 8.77016 4.8084
1031 1 1 11.7815 10.2641 0.731209
1065 1 1 10.0318 9.33292 4.39287
1057 1 1 12.8643 5.24678 5.39887
1073 1 1 13.0698 10.9588 2.1158
591 1 1 13.2642 8.63853 1.69813
914 1 1 16.6673 8.72059 4.05377
1395 1 1 15.0947 9.45131 2.93353
7397 1 1 16.1761 9.47353 2.13109
961 1 1 1.24091 9.96611 4.39679
1405 1 1 0.989855 8.67039 3.70604
1403 1 1 18.4924 9.58188 3.39887
1410 1 1 2.11561 8.80613 2.75069
1484 1 1 0.0761994 11.7814 0.936169
1282 1 1 3.21541 12.3227 2.96296
1820 1 1 3.6526 10.9007 4.60207
1002 1 1 6.43651 10.5798 3.63564
1050 1 1 9.34151 10.5492 2.68869
1415 1 1 6.45157 10.3867 4.6726
932 1 1 6.09942 9.20015 4.66599
1091 1 1 6.48054 14.0063 5.49123
610 1 1 7.92841 10.5348 4.13107
1102 1 1 9.23175 12.7366 0.862914
1135 1 1 7.68061 12.2094 2.53957
1822 1 1 9.90305 12.1241 4.04506
622 1 1 11.7818 11.3252 4.74616
993 1 1 14.6146 10.013 0.848978
1430 1 1 12.2005 10.6567 4.07008
1538 1 1 13.0189 10.0922 3.74182
1072 1 1 15.3177 10.5586 2.18152
2234 1 1 15.3256 11.4212 1.34936
1825 1 1 15.6197 11.727 2.78168
311 1 1 16.1594 9.24137 3.14386
608 1 1 15.6098 13.0891 2.85578
1475 1 1 16.413 11.4344 3.23395
757 1 1 0.106662 12.3629 4.92141
1005 1 1 2.3786 10.4797 1.74107
597 1 1 17.1399 12.6462 5.2061
1444 1 1 4.31512 11.2961 5.33908
1406 1 1 18.65 13.5872 3.23807
246 1 1 2.26332 12.5633 3.1656
1008 1 1 7.33666 13.6483 4.42351
659 1 1 7.12098 11.4746 3.54063
604 1 1 6.83168 10.3465 5.74448
661 1 1 8.67992 10.0597 5.43463
1104 1 1 7.64833 11.7897 6.33376
621 1 1 7.49565 12.832 3.49096
1182 1 1 9.27203 12.9379 2.9352
1983 1 1 10.2118 12.7889 5.85702
1509 1 1 9.52399 12.4639 2.03163
211 1 1 10.312 11.3918 4.95935
7784 1 1 10.3434 12.7787 4.84951
663 1 1 11.5408 12.5701 4.53012
667 1 1 13.7935 12.1612 4.27887
1437 1 1 15.444 10.3318 36.1064
669 1 1 13.8025 11.7363 1.69574
1042 1 1 14.9162 12.3504 3.63868
1030 1 1 16.5867 13.0209 3.99862
1149 1 1 17.4864 13.4455 3.51257
1368 1 1 17.0974 12.2684 3.48185
1880 1 1 17.8445 11.9976 6.08249
1007 1 1 1.71457 12.6966 4.26654
755 1 1 1.87726 13.604 3.36177
1163 1 1 2.39575 12.0409 4.59761
686 1 1 4.36745 12.7696 3.50811
7900 1 1 6.35744 14.0729 4.31784
1047 1 1 6.14767 13.0477 5.14276
7541 1 1 6.80712 11.7253 4.5019
627 1 1 6.34331 12.6749 4.0422
2343 1 1 7.80311 15.0753 3.99081
225 1 1 10.3213 12.8647 2.41528
1537 1 1 11.1571 15.4645 3.68641
1108 1 1 14.5572 13.2027 2.44841
630 1 1 14.5542 14.3515 4.79663
1070 1 1 9.45861 14.6909 4.41043
715 1 1 14.2153 13.3169 5.57879
305 1 1 13.2707 14.3749 3.43508
1183 1 1 16.1739 15.4387 5.1116
629 1 1 15.4508 14.3054 2.57564
678 1 1 14.4051 14.3242 3.74851
1004 1 1 16.3206 14.9749 37.5775
1046 1 1 18.4863 13.1029 1.36391
682 1 1 2.34129 16.7371 3.81348
280 1 1 17.2854 14.2101 2.84714
727 1 1 1.63751 14.3409 1.78197
1514 1 1 2.27455 15.4651 3.19304
816 1 1 0.807367 15.6399 4.43918
773 1 1 5.11638 14.7364 4.31957
1131 1 1 4.48592 14.7436 3.14797
1217 1 1 5.33685 16.0942 4.43773
1453 1 1 6.09919 14.5848 2.79693
1530 1 1 6.38492 16.1798 3.356
1133 1 1 7.27128 15.8349 3.55524
286 1 1 7.96042 16.0054 2.78029
1531 1 1 6.94022 15.0145 4.71226
1170 1 1 9.1655 16.1205 3.29606
737 1 1 10.2846 15.9416 4.75053
1192 1 1 10.26 16.2237 2.26992
668 1 1 13.8271 15.5409 0.754004
1506 1 1 10.1789 14.9704 2.73963
1059 1 1 12.8304 14.5384 4.39331
672 1 1 12.7561 13.1831 3.54844
1427 1 1 14.2405 15.2871 3.27507
1147 1 1 15.3738 16.2439 5.17789
234 1 1 17.1667 16.1339 2.28839
1596 1 1 15.2227 13.7573 3.88167
310 1 1 18.3318 15.949 2.53423
759 1 1 16.9919 16.6028 6.55589
2037 1 1 16.1632 14.1047 3.44955
1561 1 1 18.0266 14.5516 3.7757
791 1 1 18.3508 14.2225 1.6844
873 1 1 1.724 15.8218 2.31837
1195 1 1 17.9328 17.0881 4.65142
1233 1 1 1.48149 17.5298 4.07617
1566 1 1 1.90152 18.461 5.58038
1172 1 1 4.9699 16.4141 2.01005
1129 1 1 3.54089 17.3075 2.46664
340 1 1 4.77965 17.2654 2.73211
1134 1 1 4.19086 18.193 3.02577
7615 1 1 4.51386 17.0991 4.96948
605 1 1 6.20171 17.1453 2.92754
19 1 1 6.35504 17.2468 1.74608
260 1 1 7.91839 17.8696 2.74241
1064 1 1 10.065 15.089 5.82589
783 1 1 9.64029 0.449063 6.09696
1176 1 1 8.70191 15.0447 5.11139
1472 1 1 14.7048 16.3667 4.41334
1226 1 1 11.6085 16.0403 4.42945
353 1 1 14.3238 16.1103 5.50693
716 1 1 16.6981 18.251 5.87189
7923 1 1 15.5236 17.9309 5.76187
745 1 1 15.8705 17.4243 4.7991
437 1 1 16.2908 16.9862 3.28143
312 1 1 17.4439 16.5508 3.94978
1999 1 1 17.8306 15.5153 4.33448
443 1 1 18.7096 16.4719 4.13994
412 1 1 1.45337 17.6821 2.83439
1251 1 1 0.695966 17.3709 5.61211
487 1 1 4.37745 16.4157 2.96318
815 1 1 5.57539 18.7834 6.0669
855 1 1 6.56007 18.1206 3.40519
1140 1 1 5.43615 18.6997 4.05604
7901 1 1 5.9176 18.0595 2.30626
704 1 1 5.6495 17.1907 4.41864
1178 1 1 8.74749 2.6562 37.4811
417 1 1 10.2473 1.19032 3.64074
468 1 1 9.2685 16.543 5.05536
1213 1 1 8.7375 18.75 4.17821
821 1 1 10.579 0.19687 3.57764
1186 1 1 11.1116 17.4035 4.06027
11 1 1 13.9063 17.8902 4.45436