ITEM: TIMESTEP
1800
ITEM: NUMBER OF ATOMS
8000
ITEM: BOX BOUNDS pp pp pp
0.0000000000000000e+00 1.8820720577620570e+01
0.0000000000000000e+00 1.8820720577620570e+01
0.0000000000000000e+00 3.7641441155241139e+01
ITEM: ATOMS id mass type x y z
35 1 1 0.845486 1.60688 0.768555
366 1 1 1.12881 0.20785 36.7569
7246 1 1 2.82787 18.2352 36.5335
7651 1 1 4.33415 0.0310947 0.562762
6 1 1 5.40351 3.18186 0.0393087
771 1 1 4.67315 18.2044 2.56268
770 1 1 7.00861 0.268443 0.451752
11 1 1 9.35699 18.5304 1.60193
7611 1 1 7.0941 1.4598 1.00955
57 1 1 9.11507 0.62854 0.0681224
7661 1 1 9.99099 1.89906 36.869
67 1 1 10.05 17.8032 0.946872
7628 1 1 9.69583 1.69255 1.02271
7665 1 1 11.8132 1.73929 37.5746
7627 1 1 11.0967 1.35186 0.798257
31 1 1 14.6644 17.7815 37.4015
7986 1 1 14.3137 1.59924 1.60059
71 1 1 13.0931 1.05671 2.23691
874 1 1 14.0426 0.0268105 0.823439
39 1 1 16.5564 3.63834 1.27857
439 1 1 15.6325 1.30699 2.06313
7996 1 1 17.3436 3.36686 0.410388
40 1 1 0.128649 16.8146 0.930434
477 1 1 17.9413 0.217125 37.6073
760 1 1 18.3037 3.30538 37.5657
8000 1 1 18.1339 1.25774 37.4282
8 1 1 2.78062 0.967024 0.323652
7603 1 1 0.104878 3.48628 0.902482
47 1 1 1.56239 1.73062 2.043
56 1 1 5.00094 0.84066 35.5086
83 1 1 5.70017 2.49962 36.9702
456 1 1 5.98857 4.02716 0.383563
496 1 1 6.96605 3.70118 36.6725
55 1 1 9.25942 3.10767 36.9436
765 1 1 6.82651 2.3507 0.417525
20 1 1 8.98863 0.662526 1.06481
417 1 1 8.05916 1.34211 1.42361
26 1 1 11.0529 0.676261 37.621
424 1 1 7.67457 1.33599 37.1564
946 1 1 11.937 2.94556 36.2955
66 1 1 11.5985 3.59292 37.623
7591 1 1 13.3125 2.8017 37.5966
79 1 1 13.7988 1.85882 0.715625
117 1 1 16.2977 3.62437 0.159331
77 1 1 17.7255 1.6904 0.656352
159 1 1 1.09554 5.84506 0.629393
42 1 1 1.48495 4.67231 36.977
50 1 1 3.22418 1.71856 37.3131
89 1 1 4.72059 3.53854 2.06063
49 1 1 4.26292 5.45622 0.440892
14 1 1 7.78832 2.80718 0.772741
93 1 1 8.36794 1.27972 0.476012
414 1 1 7.61162 3.18402 36.0084
494 1 1 7.84559 4.33734 1.06138
937 1 1 9.42012 1.83495 2.26395
100 1 1 13.0861 5.96842 37.2068
501 1 1 12.6771 1.42913 36.5302
111 1 1 14.0373 3.06291 36.8908
108 1 1 12.4761 5.79073 0.512186
506 1 1 13.9789 4.08201 0.118517
953 1 1 11.9139 4.09297 3.96081
7663 1 1 10.8524 4.49363 37.6217
472 1 1 16.723 3.13496 36.8674
509 1 1 13.6206 4.71413 2.93672
34 1 1 14.1908 4.94886 2.07945
75 1 1 17.548 5.78522 37.5932
116 1 1 12.849 3.81973 37.3244
80 1 1 16.38 4.64864 0.0312573
115 1 1 17.2194 3.29312 2.07649
510 1 1 17.0446 5.03641 0.785881
78 1 1 17.4785 4.37775 0.0474878
81 1 1 0.633429 8.07166 37.4117
127 1 1 2.50994 4.50363 37.6257
925 1 1 2.67753 8.67322 0.907131
7729 1 1 2.3885 5.20772 1.80751
99 1 1 6.17718 6.00948 3.56421
7700 1 1 4.41239 5.13341 2.32859
53 1 1 5.50328 5.52403 2.96029
533 1 1 5.91104 3.50411 1.9411
137 1 1 7.44529 3.63094 0.434165
102 1 1 8.41698 3.55146 2.06676
143 1 1 8.44686 3.94087 0.0601594
541 1 1 11.9975 4.96281 36.5288
149 1 1 13.3045 3.87197 0.890664
7754 1 1 13.6853 6.02426 2.94831
557 1 1 16.8062 7.49015 1.28548
7720 1 1 0.550612 6.01678 35.2818
7721 1 1 18.0241 6.58148 2.46049
161 1 1 3.65189 5.6397 36.2682
7795 1 1 3.25607 9.65015 37.591
132 1 1 4.57356 8.47787 36.9785
532 1 1 4.90421 7.62716 1.05325
7733 1 1 2.73353 6.74266 0.572109
94 1 1 5.31042 6.15514 0.994281
529 1 1 4.2823 6.79534 0.0741191
7735 1 1 5.06782 6.01627 2.00904
95 1 1 8.23602 6.90474 35.985
134 1 1 8.99248 4.61235 1.90547
7775 1 1 7.41754 4.94976 0.0994387
139 1 1 9.3614 5.18508 2.72855
544 1 1 10.9786 4.84114 4.38123
183 1 1 14.7268 6.36064 37.24
538 1 1 13.1196 4.80449 1.2418
942 1 1 11.9113 7.64772 0.243359
7712 1 1 10.4655 6.57986 1.36483
113 1 1 15.6555 5.54328 1.36864
150 1 1 14.8401 5.99404 3.27098
7751 1 1 12.2823 6.95619 1.84244
550 1 1 17.4538 7.42423 2.25976
554 1 1 14.8634 5.89519 2.20382
84 1 1 17.3956 10.3062 37.4657
7757 1 1 18.6153 9.74145 0.380745
163 1 1 2.16868 9.65896 1.073
129 1 1 4.36285 9.1354 35.8082
607 1 1 5.02151 8.7346 2.17458
7727 1 1 5.32944 6.8419 0.174689
176 1 1 5.95263 7.00847 1.00652
209 1 1 4.51815 7.6523 2.45088
7734 1 1 6.80316 9.5319 0.0520797
7736 1 1 6.26083 6.24403 0.377104
179 1 1 7.67045 6.34871 1.36623
217 1 1 8.3621 7.4148 1.13361
616 1 1 9.56079 7.27276 37.4135
184 1 1 12.2587 7.46516 36.1065
498 1 1 9.22552 6.98062 0.692259
182 1 1 11.579 7.83632 36.7351
548 1 1 11.9224 6.03447 37.1799
625 1 1 13.1821 7.17985 0.127961
147 1 1 13.4892 5.49172 3.93072
154 1 1 15.4284 7.89241 0.230831
188 1 1 13.8613 8.31047 1.86287
196 1 1 15.8917 7.91616 1.78425
235 1 1 15.6796 10.7089 0.731242
594 1 1 17.125 9.22284 0.161301
153 1 1 17.8684 7.16635 0.496629
598 1 1 0.73592 9.02576 0.425911
204 1 1 2.57638 10.3707 -0.00401866
524 1 1 3.72221 10.1069 0.682328
562 1 1 18.4368 6.81708 36.0156
7802 1 1 2.81898 8.99083 35.8757
207 1 1 1.1587 10.3457 0.425763
566 1 1 3.9993 9.78147 1.83767
649 1 1 6.04722 8.88697 3.03422
7850 1 1 6.99314 8.24625 2.37919
613 1 1 6.08516 10.8618 0.733245
7822 1 1 7.79616 10.0343 0.123727
7776 1 1 8.11645 9.1948 37.2818
218 1 1 10.2643 8.63834 0.653933
7817 1 1 7.50081 7.39098 0.231278
227 1 1 10.3755 10.1073 0.191414
583 1 1 11.1394 7.03786 37.3813
585 1 1 10.8118 9.47161 0.77792
263 1 1 14.306 7.3066 37.5951
187 1 1 14.1158 8.35972 0.692588
190 1 1 16.132 8.88784 1.02861
7838 1 1 17.7238 10.6674 1.63368
164 1 1 2.3127 10.2822 2.18359
194 1 1 0.651412 9.81443 37.1527
7841 1 1 1.53991 12.0673 1.87316
7804 1 1 0.628707 11.529 0.163193
245 1 1 3.78563 12.1593 36.1657
962 1 1 2.47624 11.481 0.345176
7808 1 1 3.05844 9.96394 1.46192
7879 1 1 1.57882 11.7545 37.376
206 1 1 4.34378 11.6389 36.8577
645 1 1 4.01878 11.1098 1.10735
7852 1 1 1.16706 10.0461 36.3039
211 1 1 7.72231 11.3349 37.5087
7811 1 1 6.59377 12.3263 1.22369
222 1 1 4.80475 10.6885 36.6644
7853 1 1 6.96645 10.564 36.9943
7827 1 1 9.4243 10.9736 0.469783
578 1 1 11.8873 10.0591 1.13588
7788 1 1 7.87031 9.28866 0.816301
7866 1 1 15.2558 9.54939 0.907899
7868 1 1 13.6993 12.4878 0.00873829
229 1 1 13.3585 11.3245 36.909
592 1 1 14.9505 11.5285 1.97926
7831 1 1 14.4701 11.7722 37.4072
236 1 1 16.7294 11.0474 37.2175
595 1 1 14.3142 11.8601 0.803499
677 1 1 16.376 11.0825 1.90847
600 1 1 15.1803 10.3836 3.23616
7880 1 1 1.02177 9.54823 1.2069
242 1 1 1.31922 12.807 3.01173
7846 1 1 3.14114 11.5498 35.4059
252 1 1 4.53074 11.6273 2.11856
652 1 1 4.34813 11.7422 0.494281
246 1 1 5.14569 11.3179 4.46855
250 1 1 5.65929 11.5546 36.4492
333 1 1 7.02384 13.1502 0.630185
7856 1 1 5.04574 12.4995 1.20157
261 1 1 8.80631 11.9707 1.11741
7541 1 1 7.31447 12.2208 0.511907
7855 1 1 8.651 10.6849 37.3367
614 1 1 9.95475 11.6898 0.995293
658 1 1 9.40782 13.7 1.65508
7468 1 1 10.1777 12.4994 37.6288
225 1 1 9.97811 12.795 2.32248
228 1 1 10.301 11.8918 36.7955
7903 1 1 12.222 12.6558 1.7388
308 1 1 11.746 11.2637 1.14391
7862 1 1 9.86089 11.5463 2.13653
7912 1 1 10.7312 13.4694 36.7644
273 1 1 14.1994 12.7151 1.81075
7829 1 1 12.5598 12.7414 0.629628
277 1 1 15.4533 12.9294 1.62342
278 1 1 17.5126 13.4018 0.775918
281 1 1 0.0128896 13.1854 2.1164
241 1 1 18.3234 11.5573 2.09126
7925 1 1 16.5768 12.005 1.33384
315 1 1 0.312024 12.3286 1.46558
365 1 1 2.42164 12.6482 2.39108
7885 1 1 3.48217 14.9254 34.9526
337 1 1 4.02287 12.5677 0.837622
643 1 1 5.06581 14.0808 37.4387
295 1 1 3.77696 14.2712 35.8595
256 1 1 8.33662 10.8176 0.686311
691 1 1 6.65756 12.4585 2.40371
259 1 1 8.2933 14.4641 1.6281
254 1 1 8.93981 13.1746 0.739525
379 1 1 11.4063 13.3338 0.3457
1145 1 1 11.4828 14.9071 0.139063
708 1 1 11.889 13.4983 36.8163
309 1 1 13.9686 13.7926 37.3321
706 1 1 14.128 15.6358 1.70549
274 1 1 14.3417 13.345 36.0592
305 1 1 15.2747 15.734 1.81694
311 1 1 14.9042 12.4073 2.8523
679 1 1 15.766 14.4613 36.1368
751 1 1 0.932075 14.5326 0.9596
7924 1 1 1.79346 13.0394 0.856392
397 1 1 1.9197 14.3637 37.6022
323 1 1 2.44481 17.1037 2.78462
733 1 1 4.1772 14.8787 36.9762
7890 1 1 4.387 15.5271 35.4117
7887 1 1 2.25608 16.8199 0.283342
300 1 1 5.30496 15.3783 0.617259
296 1 1 5.63304 13.8178 36.6616
299 1 1 8.47806 14.2893 36.317
264 1 1 8.78453 15.1141 0.773479
743 1 1 11.9141 15.2468 0.958601
298 1 1 12.2192 14.8496 2.06261
381 1 1 10.3191 16.9193 0.222898
348 1 1 10.5576 14.4961 35.1962
310 1 1 13.6389 15.6238 2.72446
747 1 1 14.2472 14.6683 1.07865
1106 1 1 15.4285 17.7427 1.55245
280 1 1 17.595 16.0236 3.27906
702 1 1 14.7144 17.8275 0.787263
1110 1 1 16.8443 17.4566 37.1019
393 1 1 0.245805 13.3364 1.1089
749 1 1 16.8162 14.4839 0.924949
244 1 1 3.90248 12.3282 37.4998
357 1 1 0.758344 10.5956 1.8201
358 1 1 1.84175 13.9703 1.17915
730 1 1 3.45985 15.9383 2.29228
327 1 1 3.48656 16.7597 0.942654
326 1 1 4.86812 15.988 36.6904
731 1 1 1.38868 17.6629 0.374507
332 1 1 4.33883 15.8186 3.10287
330 1 1 5.84484 16.471 1.95852
341 1 1 8.06519 13.3686 1.80687
344 1 1 6.07676 14.6627 1.02061
343 1 1 7.41032 17.8276 1.40032
738 1 1 8.10469 12.4426 35.878
385 1 1 9.29687 16.5043 2.20708
419 1 1 9.41342 16.6603 37.1876
784 1 1 12.5969 16.7888 0.738395
306 1 1 13.5623 16.7271 0.282784
391 1 1 11.3889 16.4649 1.00034
789 1 1 16.9372 17.199 0.893348
356 1 1 16.9406 18.2051 0.223344
752 1 1 15.2713 15.7518 0.531289
793 1 1 17.7407 15.3729 0.215615
437 1 1 18.6015 0.145014 2.2803
314 1 1 18.5961 15.3844 36.9166
399 1 1 0.999185 16.1436 1.31705
7995 1 1 18.6451 14.6546 0.829675
797 1 1 16.8514 16.474 37.6141
769 1 1 0.75303 0.0472443 0.396573
12 1 1 2.06063 1.07013 1.55691
7972 1 1 3.86772 18.3846 1.66301
13 1 1 8.17975 18.126 36.2975
370 1 1 4.73028 16.347 2.15651
375 1 1 8.00271 16.8555 1.07824
775 1 1 7.22797 18.3006 36.8817
7616 1 1 6.13139 1.98326 1.35005
377 1 1 8.01132 0.516575 1.00072
19 1 1 9.43695 18.2466 2.62798
422 1 1 10.4596 1.44511 2.42281
781 1 1 9.71858 17.753 37.6163
7617 1 1 9.48895 0.624092 36.7416
27 1 1 8.53769 16.6984 0.209234
388 1 1 9.23942 17.0128 1.22652
386 1 1 11.369 17.9413 1.50403
392 1 1 10.8098 1.97566 37.5175
786 1 1 13.5539 0.738846 0.0841961
396 1 1 15.7895 18.5191 0.618809
352 1 1 14.8419 0.185812 37.3347
394 1 1 16.2485 16.7301 1.69271
430 1 1 17.0465 0.676327 37.3511
434 1 1 17.6114 0.256411 36.3709
7635 1 1 0.289924 16.0581 0.0235075
43 1 1 2.2632 0.378612 2.3475
405 1 1 2.73894 18.4799 0.873216
479 1 1 17.4405 2.10879 1.97679
449 1 1 4.0556 3.26897 3.74275
487 1 1 2.39401 1.33563 3.67901
893 1 1 3.21602 2.78503 0.0508587
732 1 1 5.19254 0.783683 0.559511
850 1 1 7.44838 2.33189 2.87916
15 1 1 8.01889 2.24643 1.96949
774 1 1 7.06462 1.84113 2.01592
60 1 1 6.9651 18.5524 2.6724
821 1 1 9.38889 1.17635 3.18233
469 1 1 10.773 0.734565 3.29767
818 1 1 10.3406 18.7097 2.25618
425 1 1 11.7649 2.17395 0.860781
470 1 1 10.9655 2.78642 2.30834
7632 1 1 13.5765 0.89118 1.27897
32 1 1 14.0196 1.60998 2.61379
65 1 1 12.9121 2.1927 1.13938
505 1 1 12.4464 2.15093 2.5559
433 1 1 16.9546 17.5018 2.17527
474 1 1 17.3896 1.48861 3.21532
517 1 1 15.6803 2.54672 2.29136
1196 1 1 15.836 2.67696 0.618051
402 1 1 16.8796 2.53568 1.19918
481 1 1 0.575334 4.77947 0.927732
87 1 1 3.73565 3.05778 2.69774
447 1 1 3.29305 0.230344 36.8873
889 1 1 4.86773 1.87624 1.51754
380 1 1 6.25637 3.07859 0.955473
497 1 1 6.6907 3.87536 2.67169
416 1 1 8.53831 0.825641 2.27897
504 1 1 5.66409 2.11186 2.38221
854 1 1 7.10902 2.27151 5.17127
495 1 1 12.0334 1.48383 5.70815
461 1 1 9.38586 3.768 1.21501
1309 1 1 10.3991 4.24412 1.42789
508 1 1 12.6224 3.2756 1.48355
30 1 1 13.6458 0.855569 3.23396
480 1 1 16.4763 1.58212 2.53128
473 1 1 12.9076 3.86241 2.70815
514 1 1 15.961 3.24189 2.92459
838 1 1 15.2802 3.31356 1.77292
403 1 1 17.3586 1.22217 5.07344
441 1 1 0.312337 3.69066 1.83731
448 1 1 17.9869 2.52833 2.7104
44 1 1 3.21026 5.62929 1.15776
808 1 1 1.69972 5.05935 0.480707
41 1 1 3.38875 2.72811 1.41537
446 1 1 1.71248 6.16587 1.3993
885 1 1 3.31172 3.63447 1.95503
846 1 1 2.95742 4.56875 4.25607
933 1 1 3.97971 4.26545 2.34333
10 1 1 3.44872 4.70667 1.36907
491 1 1 4.81366 2.78595 0.85774
96 1 1 5.09114 4.01827 0.924128
900 1 1 6.18872 4.40285 1.62963
935 1 1 6.61521 2.85216 2.14565
97 1 1 11.585 2.07003 3.09413
500 1 1 9.13735 3.85782 2.95882
499 1 1 10.1077 2.80153 37.4698
547 1 1 13.5977 4.96809 37.5211
947 1 1 11.7988 5.16727 3.93564
68 1 1 13.7767 2.40227 2.0559
909 1 1 14.266 3.5576 1.29664
151 1 1 14.6811 4.04505 2.61838
476 1 1 15.4932 4.1079 1.22394
155 1 1 17.4806 4.10957 1.29021
519 1 1 18.6389 4.59964 1.78993
157 1 1 18.5103 2.33173 3.74066
442 1 1 1.10456 3.98453 2.70318
518 1 1 17.8812 2.93683 1.4207
523 1 1 0.258579 5.5423 1.46365
82 1 1 1.61274 5.1145 2.91289
445 1 1 3.8009 7.02838 2.06665
86 1 1 2.03051 6.7775 37.455
131 1 1 3.81926 6.53555 0.979994
936 1 1 4.97089 5.83466 3.88888
454 1 1 5.71394 4.50892 4.07701
460 1 1 6.98484 6.96815 3.15036
98 1 1 6.48062 4.94588 2.73567
462 1 1 10.4439 4.80441 2.31219
543 1 1 11.3468 4.04197 5.229
545 1 1 9.61532 5.5583 4.58354
502 1 1 11.7629 6.19316 1.4571
553 1 1 11.3354 6.66799 4.1507
556 1 1 12.1664 5.55641 2.16669
444 1 1 17.8883 5.21586 1.2455
483 1 1 17.197 6.31974 1.61658
555 1 1 12.6439 6.08513 4.32953
559 1 1 18.7041 5.41766 0.447334
88 1 1 0.979235 4.75811 1.95148
158 1 1 0.0334545 7.17237 0.687679
969 1 1 3.36895 7.89081 36.3771
928 1 1 0.945942 6.91654 0.0344326
92 1 1 3.05937 6.43426 1.77393
573 1 1 3.58311 4.93429 37.4088
90 1 1 4.69128 7.68865 3.58825
171 1 1 6.00578 6.50008 2.59491
91 1 1 6.88768 6.59696 2.10885
536 1 1 7.78579 7.55204 2.46946
534 1 1 6.10686 5.59902 1.69653
1334 1 1 7.17583 9.77444 3.78211
135 1 1 6.5399 5.1856 0.664718
983 1 1 10.3233 7.27884 2.23058
7779 1 1 10.9051 4.39186 3.41697
140 1 1 12.1487 8.29568 2.40986
938 1 1 10.1018 6.23162 2.44885
152 1 1 12.3031 6.90437 2.95098
146 1 1 13.192 6.72991 2.40202
546 1 1 13.164 5.49142 2.18002
996 1 1 13.1093 7.10376 3.9558
112 1 1 16.0293 6.3664 1.92274
193 1 1 16.1788 7.86984 2.92996
558 1 1 15.9145 5.51418 2.80982
120 1 1 17.7913 5.53751 2.24761
960 1 1 16.9514 6.16977 2.68456
125 1 1 0.844714 6.64025 1.24346
563 1 1 17.963 8.09073 3.89292
526 1 1 1.69237 7.5437 1.36296
561 1 1 4.29645 9.89099 37.4616
930 1 1 3.33305 7.59478 1.29887
961 1 1 0.112834 8.52018 4.1176
485 1 1 2.2176 8.23582 1.98862
1005 1 1 1.23849 9.26608 3.25137
970 1 1 5.88796 7.58838 2.22682
130 1 1 6.8281 8.82778 4.10204
577 1 1 5.552 7.36189 5.37456
136 1 1 8.76556 8.82231 2.4551
180 1 1 7.19456 8.9586 1.44579
619 1 1 10.2593 8.49628 37.2631
973 1 1 9.41635 7.77199 1.63335
623 1 1 11.2766 7.33072 1.94779
1029 1 1 12.9859 8.63535 0.525131
552 1 1 14.6928 8.07181 2.6955
1026 1 1 9.46729 6.4012 1.6289
993 1 1 13.6667 9.65012 3.81383
589 1 1 14.7216 9.07715 1.54549
591 1 1 15.5054 8.90893 2.06079
1000 1 1 14.9081 7.05284 2.58099
195 1 1 18.5205 7.56223 1.67958
599 1 1 17.3263 10.794 36.0276
958 1 1 16.973 9.64238 2.00168
7684 1 1 18.65 7.60023 2.72208
568 1 1 18.4703 10.7215 37.6088
528 1 1 5.13801 9.04435 37.6042
968 1 1 1.04245 11.6212 2.89556
1006 1 1 7.40882 10.7392 1.00939
606 1 1 7.66566 11.7904 2.64383
1010 1 1 6.40571 9.38566 1.01847
976 1 1 8.24478 10.8518 2.29657
574 1 1 5.82752 10.4772 2.20637
215 1 1 7.46177 7.71136 1.46817
1020 1 1 9.79564 9.57729 3.22023
224 1 1 10.2455 7.62077 0.431718
582 1 1 11.1014 8.31412 0.279127
586 1 1 11.921 7.83188 4.0058
633 1 1 12.6169 7.57737 0.941505
232 1 1 13.0801 8.85941 2.44945
549 1 1 12.3056 8.97756 3.32851
124 1 1 18.801 10.6326 1.24002
7796 1 1 17.8159 9.45369 1.28665
197 1 1 18.0921 10.8128 2.67852
239 1 1 18.7848 9.38704 1.36928
637 1 1 1.32044 8.6307 1.59932
642 1 1 2.04871 9.57358 37.1661
1003 1 1 1.69704 10.9048 1.3935
208 1 1 3.14169 9.02636 1.94972
1045 1 1 4.78941 8.64882 3.22382
1401 1 1 3.81164 8.86111 0.480384
647 1 1 5.39127 9.87169 0.944921
1008 1 1 3.77874 11.988 3.23305
650 1 1 5.34985 11.4584 2.83284
1049 1 1 6.78152 12.0243 3.353
216 1 1 7.3789 10.0461 1.90258
580 1 1 9.28353 10.7004 1.54667
618 1 1 9.11336 10.4511 2.79415
1061 1 1 8.47457 11.8427 2.06781
221 1 1 9.76376 11.0601 5.32441
584 1 1 8.94981 8.97276 3.5767
7784 1 1 10.5042 10.7374 1.28486
268 1 1 13.8085 11.2206 1.71659
665 1 1 11.9734 9.32492 0.337252
230 1 1 14.3557 10.0904 0.946682
269 1 1 13.2353 10.9969 3.02309
1034 1 1 15.6482 11.7516 3.39549
639 1 1 17.6246 13.7514 37.33
640 1 1 14.5483 9.06762 2.94449
1038 1 1 17.5296 9.80326 3.57565
1078 1 1 17.2582 11.4823 2.27006
1398 1 1 17.6917 11.4679 4.50991
1040 1 1 17.6419 12.375 1.42255
603 1 1 18.6164 9.51029 3.34292
248 1 1 3.59718 13.9297 37.1284
1048 1 1 2.79042 11.6042 2.54772
1050 1 1 3.34174 11.8105 1.5777
1047 1 1 6.6709 13.4813 4.0495
253 1 1 5.09466 13.8446 5.02024
610 1 1 6.36475 10.6963 5.20352
7823 1 1 7.91739 11.734 3.79997
627 1 1 9.05903 14.5114 2.47055
661 1 1 7.8512 12.9423 2.95756
676 1 1 13.4009 12.335 1.31998
705 1 1 10.715 11.9169 1.70854
265 1 1 12.4275 11.5254 0.323317
272 1 1 11.1145 14.9955 2.82095
590 1 1 15.9961 12.7667 3.36979
1069 1 1 13.1566 13.2122 2.02501
271 1 1 16.0994 12.2718 2.20333
638 1 1 14.3416 11.4975 2.86332
276 1 1 15.1083 9.93265 2.24723
283 1 1 16.5404 13.0979 5.88892
1037 1 1 16.8169 10.4956 3.14556
1001 1 1 16.8141 11.6905 3.16925
7844 1 1 0.197096 15.4039 1.90838
685 1 1 2.6794 14.1203 3.03054
7921 1 1 3.07414 13.8145 2.1258
7843 1 1 0.625639 12.4515 3.80033
325 1 1 2.34038 15.2934 3.62664
687 1 1 4.14359 12.5437 1.89067
686 1 1 2.41711 13.2898 3.85282
688 1 1 2.04749 16.6863 5.19273
287 1 1 4.31206 13.1012 3.11935
697 1 1 7.32925 14.4352 0.516498
258 1 1 10.7011 14.007 2.04856
655 1 1 11.4824 14.1225 1.07188
302 1 1 11.0824 16.2435 3.90801
1108 1 1 12.0988 13.5126 2.51829
666 1 1 13.019 14.5198 0.977284
270 1 1 17.0143 12.9988 1.76757
630 1 1 12.4908 12.4556 2.74535
674 1 1 15.1081 13.9261 1.26121
713 1 1 17.3336 13.9786 2.34518
351 1 1 16.6001 15.6781 2.08874
717 1 1 -0.00601991 13.4426 4.9834
720 1 1 18.4683 12.9033 3.64312
243 1 1 1.7235 13.9129 3.40187
319 1 1 0.88518 17.3997 1.49059
721 1 1 3.78534 15.0563 1.58719
7888 1 1 1.97346 15.1382 2.08499
725 1 1 4.0896 13.5526 0.521973
1173 1 1 4.43866 14.8069 0.3873
339 1 1 5.25426 12.5107 2.20735
660 1 1 7.97372 12.9489 0.203869
776 1 1 4.35896 15.9527 1.07516
694 1 1 8.47989 13.7113 2.79156
700 1 1 8.08446 15.4165 2.16519
257 1 1 10.3936 14.1563 0.95611
701 1 1 11.9919 15.5209 3.54136
742 1 1 11.629 15.8905 1.90065
704 1 1 8.97292 15.778 2.82612
1143 1 1 12.3003 16.6964 1.94197
712 1 1 12.9989 15.7197 3.94842
787 1 1 15.2552 16.9849 2.28783
1146 1 1 12.3168 15.8168 2.61763
670 1 1 13.6818 14.8837 0.253034
709 1 1 15.9644 15.2396 1.12087
312 1 1 17.7461 15.2601 2.42467
757 1 1 0.776099 14.5426 2.61392
1149 1 1 17.6688 16.6002 1.81246
324 1 1 17.8611 18.2391 2.09985
404 1 1 1.6256 16.8047 1.76445
682 1 1 0.748972 16.809 2.99168
288 1 1 2.92189 13.8442 0.962934
318 1 1 18.7325 16.5415 1.9441
363 1 1 3.43352 17.7535 1.00519
1086 1 1 1.94474 18.4103 37.5143
1133 1 1 4.45365 16.8558 2.91077
331 1 1 3.01337 16.0661 37.4354
690 1 1 7.07816 16.4669 2.10717
693 1 1 4.33446 17.803 3.67808
696 1 1 6.10771 14.2027 2.16625
698 1 1 9.79561 15.7616 1.25428
737 1 1 8.18778 14.9114 4.37209
740 1 1 7.0274 14.2451 1.63062
304 1 1 10.5323 15.1335 0.585323
783 1 1 11.3793 17.4242 3.52529
346 1 1 10.9965 16.7567 1.90284
746 1 1 12.11 0.560469 37.4492
745 1 1 12.7206 15.2643 0.423665
748 1 1 13.2403 16.6781 2.78293
432 1 1 14.652 17.6648 3.22433
750 1 1 16.1531 16.2012 3.42512
791 1 1 17.6192 17.8925 3.91994
799 1 1 17.1821 18.1978 2.88709
1154 1 1 2.05763 13.7534 2.19246
350 1 1 1.38779 16.2856 4.2477
753 1 1 18.2632 15.9248 1.04389
798 1 1 18.2592 0.876765 1.42638
412 1 1 3.5073 18.2579 5.48302
336 1 1 4.96405 0.253144 1.7087
452 1 1 5.76628 1.06375 4.73038
777 1 1 6.00494 0.451841 2.30027
734 1 1 8.60392 17.1611 2.80449
820 1 1 9.63735 0.758246 2.19329
744 1 1 8.71899 17.9294 0.65693
1185 1 1 10.4965 16.9061 3.35405
387 1 1 11.934 1.45518 1.8104
429 1 1 13.1255 18.5319 0.0978175
792 1 1 12.9541 17.944 1.23732
790 1 1 14.8664 18.5762 1.59176
867 1 1 14.0537 18.005 2.11154
796 1 1 16.1765 17.601 2.88014
1195 1 1 15.5665 18.5906 4.25653
833 1 1 17.4947 0.49735 2.73604
1197 1 1 15.5511 1.68483 3.69578
754 1 1 18.3493 18.4515 0.719451
1558 1 1 17.7526 17.5703 37.5974
3 1 1 0.765538 4.12651 37.5539
762 1 1 18.4425 1.93891 1.35994
409 1 1 3.30355 0.825843 2.43296
408 1 1 4.0776 0.774234 1.3978
413 1 1 5.08408 1.62114 5.24151
767 1 1 4.66401 2.39905 3.15133
802 1 1 5.76448 2.3932 5.19663
810 1 1 7.91153 2.16536 3.81231
813 1 1 7.26783 16.9319 4.53573
1180 1 1 7.53717 0.953614 3.45157
778 1 1 7.88828 17.5768 3.67192
819 1 1 8.62396 18.4883 4.10604
855 1 1 6.18333 18.1074 3.66234
1138 1 1 10.3829 1.98461 3.33176
428 1 1 10.3276 18.4454 3.3755
468 1 1 10.9535 17.6938 2.49244
463 1 1 11.5486 18.5518 3.37982
507 1 1 11.3465 18.1097 4.46602
426 1 1 11.7285 0.618291 2.66096
466 1 1 11.7558 18.3893 2.37197
467 1 1 16.1275 0.0452162 3.22802
831 1 1 13.6002 18.137 3.10576
830 1 1 15.75 0.584887 5.64408
436 1 1 0.435637 1.62653 3.42214
478 1 1 18.795 2.58942 2.09309
834 1 1 15.7032 0.911655 2.95421
1161 1 1 0.908129 0.101844 2.26629
841 1 1 0.95606 2.58384 3.91453
839 1 1 3.03761 3.01052 4.87068
368 1 1 2.09424 3.49031 37.5611
806 1 1 1.39485 3.8514 0.745833
1242 1 1 2.21645 4.36213 3.56371
857 1 1 3.37281 2.08627 3.20055
852 1 1 4.12629 1.53342 2.57585
853 1 1 2.86626 1.85396 4.66101
1210 1 1 6.71743 3.02564 3.37079
410 1 1 8.97493 2.79787 2.68221
535 1 1 7.56715 17.4157 2.25432
780 1 1 10.2701 2.78745 1.54374
1178 1 1 8.34008 1.75776 2.78795
420 1 1 9.99656 2.80725 2.74463
897 1 1 9.79298 3.73138 2.25727
908 1 1 11.5875 3.96471 2.14966
64 1 1 12.3171 17.6898 3.15977
876 1 1 12.7694 1.16316 3.5574
511 1 1 15.2391 0.530754 1.16525
515 1 1 15.8774 4.18995 2.16258
917 1 1 18.8114 1.30306 2.45524
843 1 1 2.29056 2.6048 3.09805
46 1 1 3.95233 5.25963 4.59503
848 1 1 2.82933 4.30087 2.71549
1289 1 1 2.38496 3.83302 5.01361
887 1 1 3.0758 3.22211 3.47841
923 1 1 4.74686 2.94769 5.22814
1290 1 1 3.23442 5.58518 2.20058
455 1 1 5.54421 3.23117 3.45193
895 1 1 5.76381 4.37882 5.39896
894 1 1 7.22009 4.96841 4.76101
860 1 1 6.25627 2.51509 4.20146
892 1 1 6.01381 2.74588 7.12494
862 1 1 10.2452 3.90819 4.31748
866 1 1 12.0512 3.25726 6.86311
465 1 1 11.1688 1.40991 4.92606
905 1 1 9.17517 3.10931 5.64914
427 1 1 12.7055 2.13495 5.31714
870 1 1 12.6102 4.71835 3.18623
912 1 1 13.0999 3.80921 3.93533
949 1 1 14.3389 0.611746 1.86955
915 1 1 15.2923 3.61509 3.98226
119 1 1 16.201 3.97997 4.60247
801 1 1 16.8254 2.41012 3.0305
440 1 1 1.60157 2.41137 1.21855
521 1 1 0.33654 4.86625 3.73553
525 1 1 18.4609 4.96422 2.74565
482 1 1 1.88868 4.76119 5.46056
884 1 1 2.62524 6.33613 5.31488
489 1 1 2.75669 5.61097 3.97258
1282 1 1 2.97944 6.42438 3.60732
450 1 1 3.9819 5.71241 3.64424
492 1 1 5.64466 6.81009 3.49396
490 1 1 5.41775 6.0324 4.88945
899 1 1 3.72969 4.55049 3.25215
1254 1 1 7.34631 4.97285 3.474
575 1 1 7.25276 4.63566 2.06935
1337 1 1 7.17253 5.85836 2.81785
1255 1 1 8.07156 3.16708 3.36965
945 1 1 8.09962 4.34549 2.75415
503 1 1 9.29078 2.11326 4.22285
950 1 1 11.8823 7.43475 5.0217
516 1 1 12.1279 4.2109 1.01865
952 1 1 10.0007 4.03089 5.6173
156 1 1 15.1464 4.8302 3.2631
520 1 1 16.2034 4.06541 3.52637
160 1 1 14.0858 4.40451 3.75664
918 1 1 17.0341 3.44532 3.11777
1316 1 1 16.6656 5.26353 1.89708
488 1 1 17.1942 4.4205 3.72487
881 1 1 18.1646 3.54268 2.67711
522 1 1 0.273433 6.51848 2.38237
963 1 1 0.276357 5.93941 4.63714
922 1 1 1.52732 6.96754 2.33429
959 1 1 1.75767 6.88186 5.59572
531 1 1 3.95008 8.13126 4.42165
530 1 1 6.80051 8.00642 3.41342
886 1 1 3.08422 7.52896 4.26515
537 1 1 8.24112 5.46518 3.20015
1295 1 1 8.2318 4.7077 4.12885
1377 1 1 9.80685 4.71624 3.47429
173 1 1 10.9175 7.60129 4.88719
934 1 1 7.74622 5.43808 0.969728
981 1 1 10.3833 5.12988 5.07414
944 1 1 10.4181 6.93309 3.34576
512 1 1 14.7073 7.21221 4.14256
587 1 1 11.0246 7.71059 3.66761
957 1 1 14.4392 5.37495 4.06257
956 1 1 14.2872 7.94906 5.00898
995 1 1 15.1757 6.26458 4.32134
1317 1 1 15.721 7.11149 3.46834
1358 1 1 17.5263 4.4269 2.658
1713 1 1 16.8324 5.18 2.9798
999 1 1 1.67232 6.27717 3.15335
1439 1 1 2.01216 8.55468 3.85543
1012 1 1 2.57849 10.5567 3.22822
966 1 1 3.3907 7.95115 2.44933
932 1 1 2.6451 8.84461 3.01256
926 1 1 4.47421 7.1747 5.14795
571 1 1 5.66474 8.60495 5.20238
579 1 1 8.33409 9.45077 1.69561
1019 1 1 8.46077 5.66071 1.71011
539 1 1 11.4889 8.57652 3.17267
940 1 1 11.8866 6.85561 6.06958
1734 1 1 10.0177 7.57559 4.19933
581 1 1 11.5429 4.93445 1.44211
979 1 1 13.0389 7.7773 2.5683
1033 1 1 13.9578 7.33953 2.18995
948 1 1 13.3161 8.85374 7.11456
560 1 1 14.0599 6.4111 3.877
634 1 1 15.9868 10.095 1.58013
1073 1 1 16.9041 8.13878 4.22848
1354 1 1 15.5847 8.52121 4.83449
955 1 1 16.5791 9.28337 5.03399
564 1 1 17.8723 9.46462 2.5411
921 1 1 0.791992 7.71977 3.5009
202 1 1 0.851163 7.77 2.09067
1329 1 1 18.8088 10.0784 2.24588
1368 1 1 0.889626 10.7345 3.66431
605 1 1 5.33751 12.9494 3.92224
572 1 1 5.40585 7.82486 4.24479
612 1 1 4.82643 12.2061 3.31269
615 1 1 6.70699 9.90497 2.61205
628 1 1 10.3887 8.06952 3.01424
1421 1 1 8.2361 8.08594 3.55797
985 1 1 10.6233 8.62344 4.18692
596 1 1 12.6849 8.6434 1.49995
982 1 1 12.7329 11.6385 1.4425
986 1 1 11.6162 8.56952 4.63767
626 1 1 12.9222 10.4006 1.34629
1031 1 1 11.7359 9.97056 4.59509
997 1 1 16.628 8.94235 2.86192
1314 1 1 17.4451 8.1208 3.00167
597 1 1 1.32777 10.6676 2.63402
998 1 1 18.6113 11.7427 4.07848
1808 1 1 0.433881 12.0862 5.19453
567 1 1 3.51101 10.7309 2.16247
1405 1 1 3.25459 9.67348 3.21578
611 1 1 5.25823 9.6889 3.51358
1089 1 1 2.83392 11.2682 4.6975
972 1 1 1.38617 8.75613 4.78657
653 1 1 4.97733 9.91279 2.34297
1420 1 1 5.91532 9.97253 4.47234
1014 1 1 8.87471 10.3242 6.18455
1015 1 1 7.89872 9.62477 4.47315
659 1 1 7.75632 11.0018 4.53386
1022 1 1 7.93606 12.5724 6.36207
624 1 1 8.80936 11.184 4.17287
1461 1 1 9.1397 8.57355 0.0718487
1062 1 1 10.5792 8.43967 1.78137
1067 1 1 11.6785 8.58735 1.21574
667 1 1 13.3144 11.9202 2.49482
1063 1 1 12.0416 10.6457 3.09228
267 1 1 13.2765 8.67476 4.86579
632 1 1 13.3287 9.91077 2.15133
669 1 1 14.094 11.8504 3.9157
1066 1 1 14.1041 10.369 3.36502
636 1 1 14.2315 10.34 2.36066
1030 1 1 15.9009 10.6944 4.24101
1036 1 1 13.5013 8.39355 3.50073
1434 1 1 15.6874 9.32948 3.02064
1044 1 1 16.7082 11.7472 4.2004
604 1 1 2.18453 12.3556 3.44226
608 1 1 18.1632 9.81919 4.73804
681 1 1 0.00597663 13.137 5.93643
1081 1 1 3.41155 12.7731 2.63773
1085 1 1 3.02303 11.3965 3.6347
1453 1 1 3.64513 13.4043 4.78658
656 1 1 4.14468 12.8387 5.3707
1046 1 1 3.64578 15.0145 3.28732
251 1 1 4.11229 12.2565 4.15604
651 1 1 8.20173 10.6781 3.49697
1051 1 1 4.52665 10.6025 3.68449
1132 1 1 6.81012 11.4351 4.38818
255 1 1 8.50453 11.7251 5.20676
621 1 1 9.00945 11.6189 2.9647
1109 1 1 9.69639 9.75092 2.19092
662 1 1 9.93452 13.6008 3.06974
1105 1 1 10.2299 10.6785 2.4705
668 1 1 11.2109 12.7179 2.19003
1070 1 1 13.0567 12.5579 3.67182
1509 1 1 11.1903 11.4063 2.53996
1074 1 1 13.8836 12.6754 3.05175
1474 1 1 14.7006 13.605 3.52842
602 1 1 15.4892 14.7306 3.36049
683 1 1 17.3262 13.3289 3.16472
1077 1 1 17.6836 12.6858 5.94329
1042 1 1 17.4209 12.726 4.18546
1035 1 1 17.8382 12.0745 3.27586
1079 1 1 17.6041 9.02392 4.40437
286 1 1 1.46752 14.43 4.57584
718 1 1 0.0430256 14.3751 4.48794
7884 1 1 1.87259 15.4345 4.59725
7883 1 1 3.19822 15.3282 5.24347
1052 1 1 0.191498 14.3061 5.81813
654 1 1 5.35557 10.8298 6.12719
689 1 1 6.05223 14.1682 4.53623
695 1 1 7.34724 13.0269 4.94354
1090 1 1 6.87142 13.5183 3.03594
1091 1 1 6.40128 12.6107 4.74837
1104 1 1 8.1306 13.7372 3.71315
1135 1 1 8.85189 12.6562 4.74413
622 1 1 8.94701 12.5284 3.73848
663 1 1 10.7181 13.0221 3.68558
1537 1 1 11.07 13.8237 2.92638
699 1 1 13.0565 15.5709 1.41314
1102 1 1 8.8985 12.7952 2.39031
1506 1 1 9.95095 14.9474 2.58617
672 1 1 13.46 12.8581 4.66769
707 1 1 10.1449 11.4804 3.19621
675 1 1 13.4688 13.4412 1.07993
1114 1 1 13.0875 14.8293 3.07186
644 1 1 16.4996 13.7307 4.9227
715 1 1 15.3561 13.7284 2.60513
684 1 1 0.626681 10.949 5.92824
755 1 1 17.7713 13.8193 4.60309
641 1 1 18.2858 12.5902 4.98339
360 1 1 18.8097 15.816 4.91228
1125 1 1 2.5 16.1333 1.7486
282 1 1 3.60065 17.3215 4.31319
284 1 1 1.65125 16.3065 2.92825
648 1 1 4.91977 14.432 2.66454
1082 1 1 0.500821 17.0696 5.98582
1128 1 1 3.17471 14.9227 2.31193
692 1 1 5.80365 13.9748 3.4467
1136 1 1 3.7767 14.0143 3.07381
1532 1 1 6.18236 13.0405 1.64603
1094 1 1 5.84831 14.2456 5.63971
1533 1 1 8.77134 13.9685 4.60056
260 1 1 8.12244 15.4119 3.27563
1098 1 1 7.57644 14.7211 2.5799
703 1 1 8.6283 15.8653 5.09413
736 1 1 9.57688 14.3858 3.53491
1112 1 1 8.79622 14.7947 5.22369
1186 1 1 12.2655 16.5826 3.71493
1152 1 1 13.6339 15.8482 4.90886
673 1 1 16.0815 14.7157 4.37279
711 1 1 13.3993 13.707 3.29865
716 1 1 15.009 16.709 1.33844
1514 1 1 17.9178 15.1858 4.36555
1151 1 1 14.2481 13.8109 2.22373
320 1 1 17.3396 13.6223 5.95877
1115 1 1 16.356 14.1274 2.96137
678 1 1 0.822107 13.8602 3.82112
1124 1 1 1.26947 13.1348 4.40641
761 1 1 0.0437783 17.8585 2.67003
1561 1 1 17.6807 16.8408 4.01533
727 1 1 18.6012 17.7443 3.75843
1198 1 1 2.51433 18.1236 4.65717
292 1 1 4.09867 0.338525 3.8243
729 1 1 2.21388 1.70598 0.876794
1088 1 1 5.29278 16.4343 5.79712
1529 1 1 2.58127 15.9691 2.87683
1134 1 1 6.27145 17.5083 0.74619
1573 1 1 5.37194 15.4473 1.82555
411 1 1 6.57636 14.5638 2.97739
1140 1 1 8.41868 18.6121 2.48384
1142 1 1 11.0204 14.9642 1.58922
1064 1 1 8.06422 17.7749 5.45867
788 1 1 9.79478 16.5062 5.51034
828 1 1 12.349 17.9488 4.14413
832 1 1 14.2353 16.8699 4.34433
1193 1 1 14.0717 0.589296 4.03
827 1 1 12.8776 18.789 2.40269
756 1 1 14.9861 17.6311 4.36467
1150 1 1 17.0238 16.9724 3.10915
759 1 1 16.9133 15.2681 3.0334
435 1 1 18.6044 14.0094 3.0726
724 1 1 18.5229 15.5231 2.96699
722 1 1 2.00271 18.2682 3.41218
763 1 1 2.4401 1.38886 5.51806
764 1 1 0.845128 1.00178 4.24917
401 1 1 0.00971084 1.38973 5.1853
766 1 1 0.985242 18.2794 3.18374
1122 1 1 4.18867 0.277596 2.60844
451 1 1 5.72771 16.4779 4.30883
773 1 1 3.51752 17.7064 2.47864
1130 1 1 5.3013 0.194109 3.15144
1170 1 1 6.49289 15.9877 2.71747
779 1 1 6.92726 18.659 1.66542
1144 1 1 8.79912 17.7825 1.7263
739 1 1 8.35493 17.0008 4.67828
741 1 1 8.90458 17.1454 5.7204
423 1 1 9.51984 0.112578 3.76842
823 1 1 9.82434 15.8154 4.8054
63 1 1 10.6889 0.635362 1.54768
826 1 1 12.976 18.5198 5.51675