ITEM: TIMESTEP
4300
ITEM: NUMBER OF ATOMS
8000
ITEM: BOX BOUNDS pp pp pp
0.0000000000000000e+00 1.8820720577620570e+01
0.0000000000000000e+00 1.8820720577620570e+01
0.0000000000000000e+00 3.7641441155241139e+01
ITEM: ATOMS id mass type x y z
7998 1 1 3.34213 0.262855 37.1939
38 1 1 4.98425 1.1588 0.994175
764 1 1 5.77398 0.449155 1.36185
292 1 1 6.15928 18.3264 1.74411
6 1 1 5.8194 0.6722 0.398016
7339 1 1 8.13367 1.9505 37.5362
7287 1 1 7.48619 1.11033 0.257766
7620 1 1 7.86145 1.0935 1.23539
7667 1 1 9.38904 0.120244 1.39909
346 1 1 10.4104 18.601 1.09542
421 1 1 11.3523 1.59055 0.527333
22 1 1 11.7927 1.17345 1.70185
7938 1 1 12.0075 1.48817 37.2062
501 1 1 12.2508 1.33277 0.698708
7188 1 1 13.2499 0.414422 0.460267
7987 1 1 14.1412 1.13823 1.32452
1272 1 1 15.6054 18.4351 37.5334
1713 1 1 15.1263 0.260496 0.869289
79 1 1 15.4077 18.3661 1.90529
105 1 1 16.2919 0.269962 0.271081
835 1 1 0.956523 0.86756 1.33305
366 1 1 0.0676774 1.94616 36.9785
7560 1 1 16.051 0.734342 1.33465
917 1 1 2.98753 0.190995 1.22521
7601 1 1 18.5986 2.97465 0.979836
841 1 1 2.78945 1.57346 1.60117
1232 1 1 1.71014 1.54724 0.9489
155 1 1 4.38965 0.353641 1.95798
849 1 1 3.89128 2.07265 37.1005
933 1 1 4.12051 1.48514 0.375175
324 1 1 4.37521 2.82362 2.05555
1201 1 1 3.7672 1.70986 1.37028
493 1 1 5.34035 2.40756 37.5609
7644 1 1 7.67819 2.85992 0.401531
7253 1 1 5.68651 3.38732 1.59433
1178 1 1 9.19724 2.35466 0.119401
7624 1 1 9.7237 1.10907 0.495283
461 1 1 9.97931 3.56538 37.3225
781 1 1 11.3187 2.01804 1.52876
145 1 1 11.4463 2.49429 0.0427568
65 1 1 13.6768 1.97424 0.287244
874 1 1 12.4275 1.42977 2.39114
7989 1 1 14.7375 2.05997 0.63276
7674 1 1 15.1314 3.23675 0.0964297
7552 1 1 16.1838 2.52948 1.71154
787 1 1 15.2849 1.71212 37.3622
73 1 1 15.7967 1.79035 0.690904
833 1 1 -0.0548038 1.61499 1.15252
1675 1 1 0.198248 2.72721 1.92762
761 1 1 1.07383 3.02151 1.04353
87 1 1 3.86993 4.54488 0.30632
7680 1 1 2.49412 3.41158 37.3186
475 1 1 3.63582 3.61193 1.23788
7371 1 1 3.45707 3.33751 37.1724
6925 1 1 4.16448 2.58494 0.988873
7539 1 1 5.48258 3.78603 37.6176
945 1 1 7.74843 4.1542 1.54348
496 1 1 6.39953 3.57303 0.48856
416 1 1 8.37297 2.36776 0.920141
7699 1 1 7.29324 3.96216 0.487891
1739 1 1 8.57193 3.96537 0.896358
1687 1 1 9.99098 4.26909 1.05938
102 1 1 8.89946 3.67327 37.0044
15 1 1 11.2079 4.48837 0.716014
7611 1 1 11.1313 3.7488 37.4052
28 1 1 11.3148 4.3507 2.34821
7708 1 1 12.6324 2.35691 37.4779
934 1 1 12.0925 2.82593 1.26781
508 1 1 12.0288 3.44571 0.240343
30 1 1 13.3033 3.48946 37.4689
506 1 1 14.1451 2.94699 37.3896
471 1 1 16.3688 3.41496 0.864203
583 1 1 15.9245 2.58852 37.5611
72 1 1 18.6002 5.18383 37.5591
34 1 1 16.9444 2.35624 0.338337
7986 1 1 16.1749 3.65353 37.4268
478 1 1 18.7153 4.89417 1.75785
442 1 1 2.26544 3.64218 36.2965
520 1 1 1.59 5.04978 0.0774964
7351 1 1 1.5503 3.6859 37.6053
362 1 1 3.32586 5.86467 0.419289
1337 1 1 5.58155 4.96023 2.46279
7700 1 1 6.72753 4.2511 1.44141
209 1 1 4.81404 4.9174 0.302207
6931 1 1 6.88925 5.76762 37.1818
533 1 1 9.28826 4.27366 0.0741904
633 1 1 10.4669 5.88437 1.63476
616 1 1 10.3516 3.86426 2.20757
537 1 1 10.4066 5.20769 0.8451
581 1 1 11.1147 6.2348 0.575961
623 1 1 11.5277 6.17882 1.64201
556 1 1 13.4515 4.4494 0.840442
146 1 1 13.875 5.50927 36.7051
150 1 1 13.3539 5.52517 0.383669
1000 1 1 14.7863 5.21252 0.188445
546 1 1 15.7113 4.25246 0.898056
1194 1 1 15.7361 4.80389 37.6343
7603 1 1 16.8632 4.51964 0.169358
68 1 1 16.1671 5.79417 1.04843
7239 1 1 1.63008 6.78478 37.3088
634 1 1 0.700733 6.15185 37.3499
481 1 1 1.17819 6.17991 1.76565
7249 1 1 1.4249 6.28978 0.764037
440 1 1 3.94751 7.08579 0.0476446
1290 1 1 3.90615 5.25375 0.984933
7366 1 1 4.69781 7.93369 37.495
94 1 1 5.33928 5.29295 1.20502
7803 1 1 6.38643 7.96963 0.804218
497 1 1 9.1851 6.51997 1.2885
1310 1 1 7.86318 4.77128 0.469389
59 1 1 8.28834 6.45941 0.00663348
1026 1 1 9.19717 5.60102 0.233346
177 1 1 10.441 7.27593 0.175305
538 1 1 12.4187 6.35886 0.685141
579 1 1 12.8035 7.31839 37.2112
476 1 1 15.1597 7.62031 0.587705
7796 1 1 13.3648 6.7732 0.462809
552 1 1 15.2563 6.16168 0.754593
1037 1 1 16.1675 7.53686 1.39123
1360 1 1 17.2226 5.58223 0.449073
999 1 1 18.3513 7.32704 37.56
550 1 1 17.8038 6.12809 37.2668
979 1 1 17.0046 6.90858 0.21056
241 1 1 1.63366 8.73898 2.00405
6867 1 1 18.4739 8.85331 0.452787
1409 1 1 1.69046 7.27997 1.95575
886 1 1 2.5807 6.80366 36.8184
7841 1 1 3.31519 9.38372 1.37363
852 1 1 3.53546 7.75941 1.20561
569 1 1 3.57712 8.64998 37.5096
983 1 1 4.57432 10.0175 1.20669
1461 1 1 5.35997 6.65242 0.912548
52 1 1 6.78771 8.19315 37.461
7377 1 1 6.64069 8.04835 2.44214
7748 1 1 7.53669 8.94077 0.222201
930 1 1 7.27152 7.46581 0.517333
7751 1 1 10.7827 6.28968 37.1674
1327 1 1 9.00373 8.21171 0.964198
91 1 1 9.91497 9.3409 0.0918355
1478 1 1 12.271 7.01106 1.87464
7071 1 1 12.3411 9.27326 36.4956
186 1 1 14.4036 8.92891 0.693691
626 1 1 15.6151 8.49992 1.39011
444 1 1 16.7553 9.86196 1.28838
1038 1 1 16.1861 7.93843 0.152948
563 1 1 16.3829 8.073 36.3315
195 1 1 17.3071 8.0402 37.0689
7924 1 1 0.544193 9.39469 37.4156
1369 1 1 1.35899 8.37047 0.462298
124 1 1 2.61148 8.62479 0.484337
164 1 1 2.01152 10.2136 1.72207
7854 1 1 3.94744 10.255 0.13296
7847 1 1 5.34363 9.94989 37.4037
1366 1 1 6.13934 7.13044 0.214006
653 1 1 5.54336 8.22423 1.46849
175 1 1 6.00681 10.7869 0.0832313
647 1 1 6.8992 8.79883 1.40009
7734 1 1 7.88495 9.44969 1.19422
1105 1 1 8.72301 7.86536 37.1676
618 1 1 8.67426 10.2811 0.397237
1067 1 1 8.78792 9.2684 0.665054
7432 1 1 11.9006 7.29569 0.201974
1023 1 1 15.9849 9.26766 36.675
993 1 1 12.6556 9.81343 2.06136
78 1 1 15.3532 9.23144 2.20489
636 1 1 17.1952 9.09954 36.8317
200 1 1 16.6899 10.7208 0.516309
1072 1 1 16.3732 9.1609 0.518663
559 1 1 17.8231 10.1075 1.53077
45 1 1 17.6576 9.2159 1.18974
609 1 1 0.823734 12.3003 0.947745
642 1 1 0.197616 10.2499 0.612209
6569 1 1 1.25514 10.9176 1.6476
197 1 1 2.19344 11.6422 1.06842
206 1 1 3.24214 11.2084 1.13259
970 1 1 7.01081 11.0422 1.55607
290 1 1 6.94443 11.5598 0.34586
7822 1 1 6.87239 9.93789 0.942922
7935 1 1 7.25397 11.3597 36.8969
7808 1 1 10.9834 11.6384 1.30429
1420 1 1 8.53612 10.0867 1.49383
7334 1 1 8.24017 11.4566 0.586764
228 1 1 11.0091 8.83074 0.876508
142 1 1 10.4925 9.78081 0.753365
227 1 1 12.612 11.2297 1.2379
638 1 1 11.6606 9.48423 1.71854
1073 1 1 13.9152 11.0848 1.81397
276 1 1 15.5754 11.0429 0.816832
270 1 1 18.72 11.6674 0.5637
7322 1 1 18.1713 12.5812 0.687784
393 1 1 0.303986 10.0566 2.75507
7880 1 1 18.4059 13.626 0.544948
1852 1 1 1.38181 12.446 1.9063
7835 1 1 1.51536 13.7586 2.93731
7921 1 1 1.18631 13.7013 37.1785
293 1 1 2.64255 14.2103 2.65815
201 1 1 3.72899 11.9558 0.329054
7499 1 1 5.44972 12.3639 37.4785
1173 1 1 4.2103 12.4047 1.43591
1089 1 1 8.14979 11.9346 2.70413
342 1 1 6.74049 12.6542 37.2929
1148 1 1 7.31013 12.1999 1.17429
1508 1 1 7.88569 12.4319 37.4829
1102 1 1 9.47902 12.8934 1.3425
257 1 1 12.5536 12.5456 0.0395512
256 1 1 12.0218 11.4363 37.4531
273 1 1 13.2842 13.9623 0.93847
592 1 1 13.974 12.3179 37.6389
7480 1 1 13.4187 12.7662 0.690947
7395 1 1 15.9133 12.4173 1.18759
4 1 1 16.0119 13.3051 0.43703
1074 1 1 14.4252 11.5332 0.664991
7838 1 1 14.6109 13.554 2.62243
7791 1 1 17.1186 12.7624 1.66424
165 1 1 17.8284 12.9565 37.0742
7925 1 1 17.6385 14.1452 36.8185
1199 1 1 17.2082 13.477 0.270248
7968 1 1 0.481358 13.2761 1.17402
1154 1 1 2.65639 14.6301 0.611707
7849 1 1 2.30787 13.6175 0.0478332
404 1 1 2.25371 13.8613 1.30939
1529 1 1 4.51877 15.059 1.48594
7614 1 1 2.99344 16.1842 1.58182
7180 1 1 6.08764 12.8824 1.69331
7937 1 1 6.57017 13.7148 36.8337
1136 1 1 5.10958 12.5984 0.775707
296 1 1 6.00517 13.2336 0.6003
7503 1 1 6.77261 14.0307 0.916426
229 1 1 7.12135 13.1195 0.4804
7864 1 1 10.2213 13.16 0.742668
602 1 1 10.9203 14.3597 0.724102
7508 1 1 13.0046 14.6752 1.57483
7942 1 1 14.064 13.4384 0.138611
683 1 1 15.2367 13.8562 1.53871
7551 1 1 14.0528 14.9116 1.10911
7840 1 1 14.8903 14.0053 0.531198
236 1 1 17.3821 15.7892 37.4324
1078 1 1 16.8129 13.8547 1.54257
758 1 1 17.9245 15.1185 0.406373
397 1 1 1.45679 15.6485 0.0645998
194 1 1 18.115 14.4005 1.39673
648 1 1 0.901824 14.0791 0.639929
7964 1 1 0.442117 16.2463 0.784927
7086 1 1 2.49052 15.7053 0.587571
207 1 1 4.03296 16.9616 1.47047
1145 1 1 7.15926 13.8334 1.96218
249 1 1 9.33463 15.2725 0.582545
51 1 1 6.27859 14.795 0.405845
7516 1 1 10.902 13.9172 37.1932
7858 1 1 12.0576 14.0452 0.70722
7829 1 1 12.6872 15.6573 0.113951
736 1 1 11.2987 15.1056 1.36636
7437 1 1 14.0418 15.9027 0.295535
7903 1 1 16.0582 13.2623 36.8972
204 1 1 17.2357 15.9191 1.0297
7622 1 1 16.4356 14.1371 37.3997
791 1 1 18.8111 15.1973 1.27912
7926 1 1 0.936211 17.5625 1.6059
7755 1 1 1.92777 14.3383 37.085
318 1 1 2.01569 17.6985 2.06843
7972 1 1 2.06539 16.7022 1.32422
7523 1 1 2.2045 16.6091 0.249984
319 1 1 2.84245 18.568 0.235161
370 1 1 5.26572 17.8335 1.37392
696 1 1 4.40336 17.2909 0.456829
367 1 1 5.93803 16.7587 0.747425
7930 1 1 5.03365 15.2808 37.2903
411 1 1 7.69632 15.8348 1.56329
775 1 1 7.01633 17.1548 0.285325
381 1 1 8.76561 15.5353 1.77222
7983 1 1 10.3113 15.4392 1.0632
13 1 1 9.42223 17.123 37.5403
377 1 1 8.97449 17.871 1.55221
31 1 1 9.91261 17.3883 1.48735
658 1 1 12.6498 17.6375 0.868864
7994 1 1 11.8458 17.014 0.794616
662 1 1 12.5418 16.2633 1.06692
1142 1 1 14.7698 17.7944 0.819518
668 1 1 13.0882 17.2601 37.4423
306 1 1 15.6946 16.2404 0.979235
670 1 1 16.0786 15.3011 1.83488
7520 1 1 17.5237 17.0407 37.623
7638 1 1 16.2961 17.0747 1.16386
7040 1 1 16.02 16.532 2.24233
33 1 1 18.38 16.5485 0.361775
6724 1 1 18.2453 18.0163 0.0794132
7919 1 1 17.4743 17.59 1.03632
7996 1 1 0.667711 1.65051 0.236824
797 1 1 1.4227 17.9453 36.988
834 1 1 0.364668 17.5494 0.0736748
7122 1 1 1.86058 0.350622 37.4137
771 1 1 2.09341 17.9404 0.455431
332 1 1 5.00452 18.4453 0.512502
726 1 1 6.25986 17.9711 0.735762
60 1 1 6.76373 0.376989 0.442503
141 1 1 7.88468 17.6032 1.20221
375 1 1 11.2581 18.5449 2.15156
7990 1 1 12.7015 0.795082 1.58221
7146 1 1 10.5416 17.758 2.40189
7549 1 1 13.2744 18.3821 37.0593
390 1 1 14.1051 18.4198 0.207284
352 1 1 14.6974 17.5768 37.3042
7913 1 1 14.2461 18.1588 1.90703
7593 1 1 16.961 18.076 0.260148
754 1 1 16.4101 18.6547 1.55323
1198 1 1 -0.048168 0.603061 0.776483
398 1 1 0.0366797 0.529087 37.2927
430 1 1 0.537339 2.71812 3.20175
1158 1 1 1.96175 0.896014 1.8263
336 1 1 3.07215 0.27176 3.00392
1239 1 1 4.04898 1.96296 2.43084
7280 1 1 5.85049 1.70068 1.28746
1650 1 1 4.59233 18.3537 2.99996
7631 1 1 6.16624 1.63439 0.161351
5 1 1 6.38402 2.52138 37.3909
41 1 1 6.7741 1.2648 1.45138
7646 1 1 6.99313 1.96785 0.53204
419 1 1 8.77516 18.4411 2.52969
1250 1 1 9.03076 0.684221 2.57952
779 1 1 9.83072 1.70787 1.46559
1270 1 1 10.0733 0.594781 2.40826
422 1 1 12.368 0.368402 2.70378
139 1 1 13.2216 1.57114 3.20087
7150 1 1 10.8848 1.74363 2.52226
746 1 1 14.3993 2.2978 1.68276
824 1 1 13.6104 1.28625 2.24621
784 1 1 14.6315 0.767175 2.22251
7478 1 1 14.9552 0.9952 3.67661
7228 1 1 17.0374 1.26738 3.1464
1106 1 1 0.0823307 0.991743 2.9135
364 1 1 17.7178 1.2135 4.37386
356 1 1 17.4907 1.23349 1.51654
1238 1 1 18.1059 18.7579 2.74782
7992 1 1 0.879579 1.36856 2.29123
7678 1 1 3.63342 18.6459 2.22687
1160 1 1 2.90638 2.5204 1.37561
2134 1 1 3.00817 2.38085 2.43877
491 1 1 3.15922 3.40871 2.30551
7685 1 1 5.0375 4.1843 2.01401
6856 1 1 5.21298 1.71933 2.40698
1168 1 1 6.27758 2.16207 2.18418
814 1 1 8.94133 1.25657 1.29576
55 1 1 10.4664 2.57301 37.3426
385 1 1 9.90088 2.97001 1.12178
908 1 1 11.0833 3.27069 0.771507
7779 1 1 12.0527 2.50709 2.47845
7997 1 1 13.5213 2.91491 1.72463
505 1 1 14.0507 3.13722 0.723852
32 1 1 13.4696 2.83877 2.92093
1670 1 1 17.7305 1.91808 3.41902
1196 1 1 14.7795 2.05595 4.18278
7589 1 1 15.1895 1.42324 1.61599
2033 1 1 16.3735 1.44379 2.21678
109 1 1 18.5996 2.16786 0.33063
115 1 1 18.5803 2.43186 3.78449
1640 1 1 17.7362 2.74295 2.489
82 1 1 -0.0025698 4.08861 2.23223
321 1 1 2.03036 3.0434 1.94841
913 1 1 2.60183 3.71544 1.00124
1280 1 1 3.8883 4.37968 1.70414
885 1 1 4.2924 3.7813 2.68822
455 1 1 4.9121 3.80009 0.841947
7219 1 1 6.43685 4.26201 2.89903
1295 1 1 7.4185 2.87026 1.43171
7423 1 1 9.06997 3.27885 2.00396
7 1 1 8.83171 4.47928 2.06457
473 1 1 10.8356 3.2085 4.00085
511 1 1 11.4017 3.40832 2.33225
149 1 1 12.6856 3.2923 2.39093
387 1 1 12.77 2.3843 3.64207
113 1 1 15.2589 3.04914 1.08295
420 1 1 12.8977 3.53222 1.22231
7636 1 1 15.5539 1.93503 2.76476
1316 1 1 16.0159 3.58943 1.80009
786 1 1 17.2445 3.52943 37.6491
474 1 1 17.1494 2.80243 1.51155
2432 1 1 17.2616 3.93053 0.951918
2029 1 1 18.3216 1.7621 2.14867
1315 1 1 0.602278 3.71995 1.51042
1319 1 1 1.04828 3.55058 2.39972
98 1 1 2.33363 6.16639 1.26836
806 1 1 2.38146 5.10313 0.944195
1336 1 1 5.40959 3.99056 3.13395
1776 1 1 5.75236 6.03627 2.57938
1373 1 1 6.57536 5.46549 1.60749
7698 1 1 7.83106 4.30379 2.65329
7762 1 1 7.78417 5.7259 1.12721
376 1 1 8.70071 5.39991 1.32348
224 1 1 9.84175 4.81658 2.48229
460 1 1 10.2301 3.13097 3.17174
1374 1 1 10.2458 5.36831 3.36156
978 1 1 12.4123 4.46628 1.64011
862 1 1 12.934 4.73045 3.0163
7754 1 1 14.5834 4.98329 1.7609
954 1 1 13.5781 3.82254 2.42042
2197 1 1 15.7942 4.55022 1.93505
514 1 1 16.7747 3.29225 2.66663
1359 1 1 16.2822 5.67645 2.27627
7715 1 1 0.121684 6.52546 0.680702
1751 1 1 16.7933 4.60058 1.80046
7756 1 1 1.05731 5.0099 1.14364
522 1 1 0.173564 6.1884 1.92309
7643 1 1 3.06753 5.15688 2.07623
449 1 1 1.99707 6.87643 3.35715
1330 1 1 3.63234 4.49096 2.9149
637 1 1 4.40736 5.15755 2.12805
566 1 1 4.43139 7.14814 1.02103
527 1 1 5.17199 6.78947 2.10892
138 1 1 7.18797 6.22433 1.99886
2103 1 1 8.33463 6.37914 1.90681
446 1 1 9.14673 7.29691 2.12716
171 1 1 9.41475 6.31918 2.49173
1019 1 1 9.81381 7.71261 3.2118
909 1 1 10.5672 6.62421 2.31291
973 1 1 10.2897 6.91181 1.26073
1668 1 1 11.2203 5.50578 2.5153
995 1 1 14.2985 6.72917 37.5063
1273 1 1 12.9653 5.30712 1.46098
7714 1 1 15.419 6.25955 1.74635
193 1 1 14.4822 7.01179 2.13183
554 1 1 16.6791 6.672 1.79795
519 1 1 17.7692 6.57428 0.947513
1637 1 1 17.3316 5.52611 2.05736
808 1 1 0.607199 8.03132 2.11082
568 1 1 0.125243 8.57521 1.29803
153 1 1 3.08888 6.80651 2.2859
1410 1 1 2.97267 6.78437 4.08511
1045 1 1 4.00974 6.70831 2.35345
445 1 1 4.0228 6.15257 1.50746
580 1 1 4.38169 8.32905 0.986236
53 1 1 5.72646 8.51236 3.23649
539 1 1 8.46534 7.23581 0.869153
555 1 1 9.95225 7.79768 1.91761
232 1 1 9.40334 8.68906 2.46832
140 1 1 11.1498 7.63765 1.41046
2094 1 1 10.0623 8.73156 3.48931
1036 1 1 13.3904 8.40476 2.15009
1350 1 1 15.6192 8.78023 3.06442
591 1 1 12.7663 7.80601 0.947313
7798 1 1 13.7096 7.63357 1.64818
188 1 1 14.3319 8.06674 2.33522
1473 1 1 15.4909 7.81446 2.36564
7758 1 1 16.7019 8.60725 1.3416
1353 1 1 16.2598 8.55509 2.23121
441 1 1 18.1968 8.29911 1.92655
922 1 1 17.5021 8.02643 0.857209
959 1 1 18.4353 7.16787 1.54733
7806 1 1 1.50908 9.94764 2.72242
239 1 1 2.82006 7.68954 3.37667
1083 1 1 2.03031 9.52657 3.54253
6484 1 1 3.61608 10.1985 1.76881
81 1 1 2.46128 8.82333 2.7888
90 1 1 3.33181 7.78582 2.47844
573 1 1 4.45814 10.0385 2.28508
925 1 1 4.89682 10.9929 1.51992
215 1 1 5.08222 9.2443 1.97162
374 1 1 7.16159 9.40967 2.18323
1098 1 1 8.52505 8.66625 1.67448
357 1 1 7.7865 10.6481 3.66655
890 1 1 7.81105 8.6867 2.52841
1417 1 1 7.63207 8.14539 1.33028
7772 1 1 9.40608 10.5794 2.20681
178 1 1 9.56167 9.20341 1.3822
1429 1 1 11.1715 9.44208 2.6109
7712 1 1 9.91511 9.57063 2.4242
948 1 1 12.099 8.742 2.65882
1422 1 1 10.5252 8.72985 1.84763
231 1 1 11.7994 8.84994 37.4005
1507 1 1 13.7361 9.83389 2.26673
997 1 1 17.4249 9.66757 3.46997
7397 1 1 17.4347 7.48453 2.07103
1314 1 1 0.920026 9.54401 1.47956
2357 1 1 18.6771 9.39773 1.82397
1802 1 1 18.8 8.80181 2.7134
1521 1 1 1.14555 10.9102 3.17041
1001 1 1 1.23092 11.4434 5.13257
720 1 1 0.555833 9.35313 3.53144
2285 1 1 1.74981 10.5598 3.94709
564 1 1 2.52088 9.88843 2.48976
365 1 1 3.55627 12.0549 2.75739
7928 1 1 4.79919 10.4193 3.19009
1048 1 1 5.11802 9.33066 0.658223
7843 1 1 5.89359 10.929 1.80503
1411 1 1 4.48138 11.2821 2.73222
358 1 1 6.00428 9.84873 1.46766
7774 1 1 7.84828 11.0053 2.59378
1017 1 1 8.16979 11.4891 1.67248
7862 1 1 9.37656 10.9476 0.851476
694 1 1 10.704 11.5217 2.50998
235 1 1 12.8268 12.0798 3.39031
7908 1 1 11.4077 10.0106 0.248534
1538 1 1 14.5051 10.9374 3.1007
669 1 1 14.6294 11.8126 1.80229
1039 1 1 11.513 10.4303 2.64186
7428 1 1 15.3511 12.0951 2.88651
1396 1 1 17.7624 11.0157 1.82135
7804 1 1 16.9564 10.2419 2.26888
7444 1 1 15.8353 11.1197 2.672
84 1 1 17.94 9.71216 2.53512
125 1 1 18.5061 10.9846 2.91739
1450 1 1 0.634904 12.7328 3.59824
1484 1 1 0.32897 11.8027 1.74117
1005 1 1 2.17262 12.8764 4.18789
7403 1 1 2.05135 14.1901 3.91783
1365 1 1 2.46938 10.9981 2.5627
7482 1 1 2.78059 11.9448 2.01461
686 1 1 3.06591 13.304 2.01699
613 1 1 5.69555 13.0223 3.76883
233 1 1 6.17339 11.6733 1.04694
691 1 1 6.75879 11.6596 2.31337
1573 1 1 8.43512 13.0408 1.14481
1135 1 1 9.39224 12.7942 2.5246
1509 1 1 9.46063 11.8535 1.66871
7811 1 1 9.72186 11.6103 2.98619
7780 1 1 11.1882 12.3054 37.3493
254 1 1 12.275 12.8363 2.48188
225 1 1 9.45688 14.0701 2.81434
261 1 1 12.4314 13.1534 0.809695
916 1 1 14.885 10.6043 4.24205
1389 1 1 15.224 14.6665 2.57508
2234 1 1 16.2407 12.2009 2.36244
192 1 1 18.1415 13.3815 1.44723
1046 1 1 0.158604 13.2847 2.19723
289 1 1 18.4134 12.1995 2.40806
246 1 1 2.51594 14.8765 1.72666
7658 1 1 1.41424 13.5699 1.88901
243 1 1 2.08438 12.6547 2.70265
1282 1 1 3.23548 12.8878 0.41824
685 1 1 4.94173 13.4733 2.89047
687 1 1 7.66405 12.9456 1.80382
16 1 1 5.80615 14.8834 1.98512
7543 1 1 8.10809 14.6455 2.47062
213 1 1 9.96931 14.1484 3.92492
1908 1 1 8.77115 14.3624 1.25762
277 1 1 11.3268 13.3104 3.45713
2661 1 1 8.76293 13.6546 2.07766
269 1 1 12.6906 14.0796 3.85118
259 1 1 12.925 13.682 1.92209
7834 1 1 14.3097 13.5191 1.15977
1108 1 1 14.9564 14.8536 1.53108
629 1 1 15.8777 15.1053 3.36748
280 1 1 16.6934 13.3873 2.47543
727 1 1 2.20059 16.0051 2.12595
310 1 1 0.369602 16.4949 1.85938
873 1 1 1.49565 15.0756 1.09571
643 1 1 3.98449 16.1565 2.03367
248 1 1 3.51999 17.0223 2.61738
1453 1 1 5.00329 15.4144 2.41658
7455 1 1 5.05302 16.3999 1.72661
344 1 1 9.61875 15.0476 1.75857
304 1 1 9.88392 14.3923 1.00906
1506 1 1 9.95208 16.8544 2.55312
379 1 1 13.2799 15.5877 1.25826
1151 1 1 12.3582 14.7818 2.93588
699 1 1 11.4211 14.07 2.05336
64 1 1 14.2708 15.6032 2.77482
990 1 1 13.9367 14.7189 2.12485
7920 1 1 14.8004 15.71 0.996752
7872 1 1 14.243 16.7427 2.91826
6719 1 1 15.9651 14.5898 0.74376
7561 1 1 17.7341 16.7747 1.72845
590 1 1 16.2706 14.376 2.43595
278 1 1 17.065 14.5625 0.686656
282 1 1 0.477777 14.4344 2.19955
1997 1 1 17.3242 15.6984 2.06322
1526 1 1 2.92156 17.8584 2.77376
331 1 1 1.60736 16.7674 2.62641
7651 1 1 4.02971 18.0886 1.07589
1172 1 1 6.79006 15.9008 1.00574
487 1 1 5.51231 17.6655 2.4275
19 1 1 6.83416 16.3221 2.01634
700 1 1 7.01674 15.0995 1.81837
7214 1 1 8.37256 16.505 2.10621
286 1 1 9.47212 16.2019 1.55444
1533 1 1 10.9865 16.7199 1.74616
1192 1 1 12.1295 15.7059 2.24056
837 1 1 13.2406 17.121 1.75481
785 1 1 15.0932 17.6672 2.65676
7844 1 1 17.0592 17.0174 2.84855
7870 1 1 15.7881 18.0277 1.00048
234 1 1 17.434 17.7221 2.09601
840 1 1 18.4936 17.1838 2.35724
399 1 1 1.92121 0.0873502 0.883424
412 1 1 0.407945 18.1164 2.60283
1558 1 1 1.01872 18.6031 0.258638
1208 1 1 3.84093 0.235556 0.391326
1129 1 1 4.41621 17.859 2.03113
1932 1 1 5.63383 18.7936 2.55392
340 1 1 6.71254 17.5669 2.66428
690 1 1 7.61875 17.0745 2.47336
1301 1 1 7.04168 17.2595 1.45914
7661 1 1 8.17824 16.5409 0.793577
829 1 1 9.37743 18.3286 3.42425
820 1 1 9.70891 18.2484 2.15035
9 1 1 9.2401 17.5634 2.65178
740 1 1 10.7707 1.06346 1.5583
7911 1 1 11.1743 0.743864 2.52478
316 1 1 12.1748 18.4465 1.71927
7948 1 1 13.7152 17.6004 0.781893
433 1 1 16.3016 17.609 2.18228
753 1 1 17.4544 18.7338 1.8596
328 1 1 16.5128 0.389394 2.74415
1474 1 1 18.6388 18.1929 1.06774
12 1 1 17.5966 -0.0117496 0.400249
40 1 1 0.422368 18.0032 4.79483
789 1 1 0.525244 1.75304 4.38528
802 1 1 2.94394 0.927368 3.98737
1122 1 1 4.58372 1.18022 3.97906
43 1 1 3.66539 1.48592 3.60021
7616 1 1 6.5146 0.733774 2.43552
857 1 1 6.87192 1.73031 2.96629
1541 1 1 6.81724 0.828529 3.62744
29 1 1 7.80626 0.168083 4.17637
7627 1 1 8.60488 0.501336 3.71721
863 1 1 7.75354 1.17257 3.47119
27 1 1 9.25759 0.0562851 4.58803
1130 1 1 9.16803 1.69967 2.65043
941 1 1 10.5024 18.7097 4.15027
869 1 1 9.87516 0.523921 3.52142
417 1 1 9.78744 2.20714 4.43261
26 1 1 12.915 1.15351 4.51245
821 1 1 10.6643 1.70995 4.04944
1540 1 1 12.2307 1.45404 3.38257
1187 1 1 14.1425 0.625099 3.06809
151 1 1 14.4471 2.07397 3.07071
1590 1 1 13.5977 18.1921 4.78262
1143 1 1 15.0911 1.10165 4.84813
766 1 1 16.1384 0.345258 4.41616
795 1 1 17.7757 0.519881 3.47684
899 1 1 1.90778 2.29924 2.9482
1638 1 1 1.68086 1.16501 4.36885
47 1 1 2.80596 2.07419 3.92049
1210 1 1 4.56872 0.591211 2.96562
503 1 1 4.02335 2.53204 4.79452
1216 1 1 3.62448 2.74251 3.83225
888 1 1 1.65486 2.23049 4.24726
889 1 1 5.51898 1.38544 3.41242
7607 1 1 4.69192 2.02576 3.30045
7298 1 1 6.29903 2.45528 3.85608
504 1 1 7.8797 1.57842 2.13285
17 1 1 8.67499 2.4105 1.79007
937 1 1 8.13256 3.14885 2.7187
7626 1 1 9.97836 2.11438 3.30675
7619 1 1 11.6106 2.33535 3.56807
838 1 1 10.0815 2.46698 2.11544
500 1 1 11.5962 3.47531 3.46371
427 1 1 13.734 2.01374 3.90025
465 1 1 14.3234 0.998532 5.75643
912 1 1 15.01 3.13941 3.95908
1223 1 1 15.7608 2.88983 3.17791
800 1 1 15.6822 1.70923 3.69584
112 1 1 17.3878 2.31188 4.7586
35 1 1 1.11363 0.131468 2.61163
2071 1 1 17.2277 3.98637 3.71965
1964 1 1 16.9636 2.95602 3.83738
1644 1 1 0.485378 2.97309 4.21652
488 1 1 2.61569 4.34644 1.86654
450 1 1 1.34887 3.33226 3.91566
884 1 1 1.70722 3.95568 4.80512
403 1 1 2.41972 3.24905 3.07181
1242 1 1 2.57334 4.53588 4.8644
767 1 1 3.16359 3.82244 3.46689
89 1 1 5.19286 2.93617 3.23517
1299 1 1 3.44741 4.61784 4.19762
1206 1 1 7.22509 4.07214 3.58976
2150 1 1 8.42104 4.13944 3.59482
217 1 1 9.42166 4.08605 4.12361
971 1 1 7.89672 3.22832 3.70781
470 1 1 12.2303 4.86848 4.39434
876 1 1 10.5944 4.27301 3.09631
1338 1 1 11.966 2.88504 4.39315
1597 1 1 13.7689 4.06504 3.698
495 1 1 14.4035 3.18956 2.4081
910 1 1 15.9804 2.64259 4.29215
515 1 1 14.9021 4.11915 2.66539
1265 1 1 15.7989 3.97013 4.82927
156 1 1 16.1303 5.18565 3.42135
119 1 1 16.3044 4.10467 3.26877
1197 1 1 0.927895 4.67676 4.8347
1717 1 1 18.1277 5.57591 2.63929
603 1 1 2.68453 4.91174 3.53088
848 1 1 2.24591 6.18637 2.4115
483 1 1 1.88548 5.43149 3.14319
7524 1 1 3.73389 5.68516 4.38824
887 1 1 5.56278 5.35777 3.4398
765 1 1 6.29253 3.46121 3.52562
14 1 1 6.66488 4.8994 3.5133
1181 1 1 7.50048 4.58597 4.52995
1769 1 1 6.55067 4.21277 4.32803
1331 1 1 8.48899 5.02817 4.30019
1308 1 1 9.10161 5.24292 2.94438
553 1 1 9.17135 3.77792 3.02027
938 1 1 11.642 6.55184 3.25486
1413 1 1 10.945 6.3618 4.27771
588 1 1 11.8894 4.96303 3.41956
1307 1 1 12.5169 3.69018 3.80949
2232 1 1 14.8655 4.90516 3.53455
872 1 1 14.3505 5.27858 4.72967
1033 1 1 15.6437 6.87632 3.64105
801 1 1 17.1746 5.58878 3.16495
1237 1 1 0.807777 4.78186 2.90121
1759 1 1 17.8358 4.86902 3.78396
1318 1 1 17.7121 5.95465 3.98953
1442 1 1 1.10382 6.25537 4.79856
525 1 1 0.835458 5.53426 4.04874
523 1 1 1.67994 5.36422 2.04414
1334 1 1 3.57221 5.69317 2.78145
1774 1 1 4.68278 5.7809 2.91647
1781 1 1 6.01745 6.44955 3.51922
10 1 1 7.02383 5.86314 3.00278
611 1 1 7.84387 5.06192 3.24091
898 1 1 7.97337 6.02967 3.72503
1066 1 1 9.01382 5.92788 3.73518
1333 1 1 8.78768 6.82002 3.0956
147 1 1 10.5109 6.83342 3.42269
1463 1 1 12.5839 6.16063 2.45404
509 1 1 15.2699 6.07861 3.18265
1438 1 1 14.1656 5.95395 2.43686
134 1 1 14.4874 6.53063 3.91007
1441 1 1 14.621 7.35529 3.34007
1711 1 1 14.9582 6.56384 5.54407
1387 1 1 13.618 6.01484 3.79008
2269 1 1 15.4099 6.83688 2.51336
7641 1 1 0.987448 6.26923 2.90113
1443 1 1 17.7535 6.75484 2.6973
1488 1 1 0.0856132 7.02591 2.5354
489 1 1 1.04039 6.85447 3.74379
131 1 1 1.6665 8.42944 4.11894
2177 1 1 4.07085 7.92756 3.26938
926 1 1 4.65344 7.02137 3.12427
1296 1 1 6.39039 6.83231 2.46203
1381 1 1 7.01851 7.69812 3.64792
1727 1 1 7.40432 7.38913 2.14489
130 1 1 7.48017 6.74878 2.99791
587 1 1 8.26755 7.80731 2.6122
2065 1 1 8.99476 8.67487 3.41956
498 1 1 10.8263 8.20245 2.6795
1714 1 1 12.7712 7.17902 2.75077
606 1 1 13.1303 8.25518 5.02657
2153 1 1 13.6945 6.94356 3.17307
1715 1 1 13.7955 8.82421 4.00914
593 1 1 15.3068 9.58009 3.84654
594 1 1 16.3041 7.38216 2.78021
7721 1 1 17.4091 7.58776 3.51797
960 1 1 16.2583 7.57322 3.84563
560 1 1 18.4715 6.63144 3.58826
242 1 1 1.63631 8.12349 3.0336
1034 1 1 0.625858 7.84532 3.51295
1322 1 1 2.06529 10.9534 4.86921
1405 1 1 0.891101 10.3709 4.55834
998 1 1 3.29388 9.98838 3.19365
1053 1 1 3.5926 8.69726 2.27799
1724 1 1 4.26135 9.57801 3.66774
1041 1 1 4.52416 7.6939 2.1528
1049 1 1 5.83395 8.93174 4.43958
1085 1 1 6.77375 8.88639 3.37735
536 1 1 7.45241 9.55502 3.69413
1061 1 1 8.83396 9.98456 4.07396
586 1 1 7.98164 8.3386 3.60628
7827 1 1 9.27638 9.74497 3.08594
1020 1 1 9.8356 9.69161 3.98559
985 1 1 10.7812 10.1862 3.53325
303 1 1 13.9208 9.06025 2.91708
1395 1 1 13.6459 10.2733 3.96755
1480 1 1 13.5126 10.7284 5.60989
914 1 1 14.3722 9.66632 4.36046
311 1 1 16.5668 8.59241 3.53486
996 1 1 16.3741 9.9202 3.22247
1757 1 1 16.1232 9.94901 4.46455
1403 1 1 17.6901 8.72132 2.87034
882 1 1 18.214 10.0165 5.11296
7368 1 1 0.758001 11.5011 3.81588
315 1 1 3.60125 10.8241 2.59958
7888 1 1 3.51406 13.1581 2.91167
531 1 1 4.4454 10.6128 4.24434
1163 1 1 3.80532 11.4042 3.66073
1532 1 1 6.85724 10.3248 2.44942
1051 1 1 5.73041 10.039 2.36976
1376 1 1 5.66245 11.9597 2.55438
1002 1 1 7.62573 11.0342 4.64491
659 1 1 8.64455 11.4236 3.84908
7541 1 1 6.95551 11.4043 3.67493
1050 1 1 8.72094 10.859 3.04337
615 1 1 9.67092 10.8319 3.92891
7912 1 1 12.112 11.8452 2.3226
1790 1 1 11.0178 11.6786 4.01432
1430 1 1 11.7713 9.57743 4.17603
1718 1 1 12.6665 10.2441 3.62239
1512 1 1 12.3856 12.9976 3.71171
628 1 1 12.9752 10.9323 2.34326
2244 1 1 13.7364 11.35 4.5757
967 1 1 15.9899 11.0911 4.29828
1080 1 1 15.2335 11.0976 5.33507
240 1 1 15.5277 12.32 4.31702
1838 1 1 17.3082 10.6259 3.96988
2084 1 1 18.8258 10.2702 3.79355
1287 1 1 2.76039 11.1608 3.57593
288 1 1 2.81899 13.5546 3.54721
1012 1 1 1.78527 11.6661 4.29653
654 1 1 3.50778 11.8815 4.63416
1081 1 1 5.38091 11.8339 1.61495
627 1 1 5.82416 11.9345 3.89338
621 1 1 8.4308 13.0836 2.73546
333 1 1 10.5154 12.9533 2.01045
1182 1 1 10.1618 12.3939 3.64508
614 1 1 12.1372 11.9504 4.09754
1111 1 1 10.5306 12.7071 6.51309
663 1 1 13.9618 14.7378 3.19584
672 1 1 14.4952 11.7448 3.89101
600 1 1 13.7645 12.619 3.22467
747 1 1 14.7373 13.3067 5.26799
1825 1 1 14.728 13.0758 3.63383
1475 1 1 17.0621 10.9737 2.906
1368 1 1 15.6973 13.4566 2.41399
968 1 1 18.5363 12.5642 3.959
1439 1 1 17.7588 12.7018 3.27829
755 1 1 1.4285 15.0734 2.85971
1156 1 1 2.65249 15.0127 5.01051
1449 1 1 2.75815 15.0351 4.00148
251 1 1 1.2668 13.2439 4.33817
339 1 1 4.46 12.1817 4.44071
7900 1 1 4.7935 13.5998 3.87982
1010 1 1 6.136 13.9923 2.43093
7975 1 1 7.12471 13.1701 3.06265
1103 1 1 10.5368 13.8126 2.88759
1942 1 1 12.8354 12.3228 1.40141
1069 1 1 13.7147 12.8041 1.96728
305 1 1 14.6545 12.2072 4.8433
678 1 1 14.8571 13.8979 4.47251
608 1 1 14.9073 14.2098 3.40495
1596 1 1 15.8309 13.2638 4.49599
2238 1 1 16.1714 13.9716 3.38394
1149 1 1 16.8566 13.6806 4.14416
2037 1 1 16.5846 14.3141 5.05623
769 1 1 17.7572 14.0725 5.03949
1406 1 1 18.7225 14.5646 3.68192
1561 1 1 17.2368 14.3896 3.10784
724 1 1 0.266926 13.7061 3.32718
1954 1 1 18.2593 14.9527 2.32644
1550 1 1 3.09424 15.2523 2.55556
1487 1 1 0.990695 14.4564 4.09286
350 1 1 1.61668 15.6304 3.81575
325 1 1 2.73585 16.8996 3.30576
1128 1 1 3.93234 14.2971 2.57141
773 1 1 5.55664 14.7099 3.06178
1131 1 1 5.28034 16.4517 2.71379
7856 1 1 8.06429 15.5508 3.73167
1530 1 1 7.67686 15.8086 2.79351
253 1 1 7.16734 14.3784 2.8496
2343 1 1 8.08881 14.2823 3.44352
7945 1 1 9.76357 15.3066 4.28426
1070 1 1 9.10099 14.8971 3.67724
1170 1 1 9.69453 16.4152 3.69152
1939 1 1 10.2229 14.7519 3.15314
1226 1 1 11.3219 17.0387 2.67399
1501 1 1 10.3453 15.8928 2.07694
1100 1 1 10.3694 13.9541 1.73745
317 1 1 10.6905 16.2791 3.28814
1537 1 1 13.2326 15.8766 3.83337
1153 1 1 13.6882 13.7739 2.77416
1427 1 1 15.2829 15.7814 2.726
1469 1 1 16.5354 15.9305 3.13439
790 1 1 15.771 15.8325 4.33794
435 1 1 16.7179 14.8399 4.05409
394 1 1 18.4801 17.376 4.40478
1165 1 1 0.563758 15.5752 2.97691
7197 1 1 0.626329 17.1681 2.70977
1514 1 1 0.439781 16.646 3.67502
1481 1 1 1.59527 17.5968 3.19012
7573 1 1 6.07984 15.8777 2.64033
2378 1 1 4.4919 16.4227 4.04767
605 1 1 7.99916 16.9322 3.38694
323 1 1 5.56944 17.0509 3.41104
1133 1 1 9.19805 15.626 2.70585
260 1 1 9.21412 17.3423 3.7072
1886 1 1 8.87578 15.8624 4.15998
698 1 1 10.2605 17.6171 3.4042
1114 1 1 10.4854 16.6195 4.35435
1107 1 1 13.3775 16.2241 2.23907
7515 1 1 14.2859 15.8914 4.00156
1157 1 1 13.5447 16.1966 4.83297
1539 1 1 15.0484 16.927 4.43699
7125 1 1 16.304 17.0152 4.24655
437 1 1 15.5925 17.0162 3.37887
312 1 1 17.6727 15.7931 3.27611
443 1 1 18.5576 17.9505 3.38752
157 1 1 18.6315 18.765 4.11896
1233 1 1 18.8245 0.19414 1.81354
778 1 1 2.08841 1.4976 3.51115
843 1 1 3.82648 0.261687 4.33287
772 1 1 3.57105 17.9139 3.79437
1211 1 1 2.57207 0.0442756 2.11031
777 1 1 4.38707 17.2572 3.18295
1134 1 1 5.87565 0.233297 3.49782
855 1 1 6.626 18.3463 3.53126
7901 1 1 7.07003 18.3664 1.0968
7531 1 1 7.00694 17.1594 3.62735
410 1 1 8.21367 17.9624 3.87231
1708 1 1 10.3668 17.6745 4.44864
780 1 1 12.3737 17.7889 2.5705
11 1 1 13.3886 17.4786 2.86955
1906 1 1 12.003 15.7845 3.2876
20 1 1 12.1038 18.5023 3.81922
1138 1 1 13.2666 18.809 1.87226
7984 1 1 13.0053 17.9318 3.94269
823 1 1 12.7121 16.672 3.39395
389 1 1 13.4564 16.9634 4.10534
798 1 1 14.5616 17.8412 3.90616
7155 1 1 14.4782 18.4881 2.929
1110 1 1 14.3724 0.0249488 3.96374
7887 1 1 0.659084 18.0831 3.73652
409 1 1 17.5762 18.3883 3.78197
1200 1 1 0.903671 1.84572 3.45719
1293 1 1 1.04804 18.7926 5.81395
846 1 1 0.562838 18.5496 6.84436
1600 1 1 3.86577 1.32709 5.32931
819 1 1 4.73109 0.664384 5.03645