ITEM: TIMESTEP
3300
ITEM: NUMBER OF ATOMS
8000
ITEM: BOX BOUNDS pp pp pp
0.0000000000000000e+00 1.8820720577620570e+01
0.0000000000000000e+00 1.8820720577620570e+01
0.0000000000000000e+00 3.7641441155241139e+01
ITEM: ATOMS id mass type x y z
917 1 1 18.798 1.45513 0.943439
7524 1 1 1.9597 0.642374 2.04293
319 1 1 2.22405 18.4387 0.888068
770 1 1 4.85643 0.169531 37.5239
7215 1 1 3.21212 1.15389 0.8158
6 1 1 4.33691 0.684484 0.796038
7644 1 1 6.24415 1.26408 0.702417
7339 1 1 6.34771 0.57855 1.6212
7620 1 1 6.82599 0.561996 0.385631
343 1 1 7.3745 1.69451 0.665781
416 1 1 8.41864 1.04538 0.692297
937 1 1 8.84175 1.93755 1.67027
780 1 1 9.7556 17.8051 0.882665
15 1 1 10.0032 2.14634 0.437113
7661 1 1 9.22713 18.5167 2.01006
7667 1 1 9.83238 1.39208 1.21387
785 1 1 12.7531 18.5978 1.91717
346 1 1 9.94079 0.276008 1.65787
22 1 1 11.3035 0.330645 1.64691
7619 1 1 12.5382 18.3932 0.771698
746 1 1 13.2358 0.385981 1.15602
7665 1 1 12.7356 0.628709 37.434
7601 1 1 16.7877 0.718493 0.937753
77 1 1 17.3115 0.479063 37.375
7992 1 1 17.4694 1.66148 1.7392
356 1 1 17.8765 0.759681 1.01299
761 1 1 0.984082 2.68429 36.9258
7608 1 1 1.62461 2.14921 0.0800132
408 1 1 3.4007 4.23847 36.3983
7631 1 1 4.63361 2.17015 1.2805
89 1 1 5.35807 2.6207 1.81187
857 1 1 5.36178 1.44746 2.0481
849 1 1 3.39781 1.99857 1.45263
935 1 1 5.45868 2.27041 37.0385
533 1 1 7.39763 3.01537 0.519385
371 1 1 5.87029 2.1917 1.04028
57 1 1 8.26332 2.021 37.2354
7298 1 1 6.82516 3.27899 1.34522
55 1 1 8.42012 2.15363 0.766786
897 1 1 9.70451 2.77718 36.9713
1687 1 1 8.43506 3.11516 1.02146
838 1 1 10.6348 2.09439 2.4917
387 1 1 12.3352 1.1275 1.07176
1270 1 1 11.3156 1.58539 0.715145
116 1 1 11.8968 1.68053 36.3201
65 1 1 13.8311 2.72415 0.46047
39 1 1 12.5451 1.78178 37.4683
431 1 1 15.5033 3.8737 1.31666
109 1 1 17.2226 1.68136 0.666645
7996 1 1 0.0481183 0.544206 37.2019
430 1 1 0.0937768 1.87759 2.14412
479 1 1 18.535 3.0054 0.146329
841 1 1 0.904866 2.51771 0.829461
1289 1 1 2.88837 2.93219 0.690303
7678 1 1 2.32692 3.77618 0.200292
37 1 1 3.19257 3.53145 37.1718
885 1 1 4.26447 3.35473 0.858664
521 1 1 5.15589 4.36448 -0.00782969
900 1 1 5.4447 3.32522 37.1045
455 1 1 5.8782 3.89444 1.93575
494 1 1 8.85648 3.63563 0.0679948
7657 1 1 6.67375 4.12263 0.945332
461 1 1 9.29652 2.81844 0.700068
28 1 1 11.8154 4.86326 0.180108
623 1 1 10.7685 3.43122 36.3678
505 1 1 12.2847 2.69444 0.50437
7746 1 1 14.3809 3.5631 37.4493
72 1 1 16.1532 4.86339 1.44089
7756 1 1 16.9449 5.48089 0.931876
7950 1 1 16.0334 4.01679 36.9026
73 1 1 16.4604 4.10798 0.754505
442 1 1 18.6899 4.41755 0.360255
127 1 1 18.6115 5.15555 36.8769
729 1 1 1.63836 4.93616 37.4542
7249 1 1 1.68231 4.22133 0.890476
7643 1 1 2.21802 5.95476 0.545955
933 1 1 3.30747 3.94617 0.580213
485 1 1 4.10585 6.19264 37.5318
7700 1 1 6.46407 5.17547 1.72194
209 1 1 5.56454 5.15069 0.768188
52 1 1 4.65841 5.22518 36.8379
7371 1 1 4.39069 5.15769 0.260424
497 1 1 6.1043 6.00199 1.02479
532 1 1 7.61444 5.23882 1.05268
575 1 1 8.32304 4.72469 37.5616
462 1 1 9.29566 5.32513 36.9959
537 1 1 9.48827 4.70081 0.314846
224 1 1 10.7329 5.27986 0.740325
633 1 1 11.2487 5.7461 1.83545
146 1 1 12.4778 6.53692 1.34164
152 1 1 13.0316 4.95242 1.05658
476 1 1 13.6669 5.79497 1.26946
7392 1 1 13.0868 4.47682 0.0749272
80 1 1 15.3778 4.73526 36.198
7236 1 1 16.4425 5.8317 1.78051
517 1 1 17.3929 3.45308 0.204642
554 1 1 16.709 6.65367 0.922964
7603 1 1 17.0645 6.10155 0.088728
520 1 1 17.7323 4.93034 0.121522
7715 1 1 17.7461 5.50309 1.68421
88 1 1 1.19096 5.52019 0.74445
444 1 1 0.24043 7.47287 1.27752
999 1 1 18.1887 5.95079 0.461341
524 1 1 3.31923 6.27047 0.714688
440 1 1 2.32198 6.1821 1.64623
7239 1 1 0.227432 6.00736 37.3317
10 1 1 6.04114 7.06473 1.43588
445 1 1 6.32746 6.26734 0.0655391
99 1 1 8.54728 7.07505 37.3977
534 1 1 8.01544 7.21504 36.2407
7699 1 1 7.46776 5.9201 0.0610467
7423 1 1 9.72387 4.95444 1.40117
502 1 1 12.0908 5.6425 1.00084
570 1 1 9.72352 6.04258 0.890196
7821 1 1 12.3295 7.05782 0.482423
989 1 1 13.0846 6.29292 0.301717
578 1 1 13.6201 6.99694 1.00887
7591 1 1 13.8624 7.4531 0.124853
7798 1 1 13.4325 6.6792 1.99606
1000 1 1 14.4312 5.35832 0.471265
7359 1 1 16.4212 6.89805 37.5845
1396 1 1 16.468 8.33666 0.280039
559 1 1 17.7514 6.97298 0.505796
74 1 1 17.4181 7.01539 36.9925
195 1 1 18.4613 6.97196 37.4019
1329 1 1 0.114573 7.8262 0.170165
44 1 1 2.76333 6.91827 37.2419
1409 1 1 1.9527 6.97445 0.954745
128 1 1 2.41566 10.3416 37.4353
92 1 1 3.52047 8.37191 37.299
81 1 1 2.80542 9.39447 0.0624432
446 1 1 7.60162 7.25083 0.470555
1369 1 1 3.61633 7.25596 0.0177811
983 1 1 6.59409 7.87672 1.65559
95 1 1 8.40322 8.1404 36.3658
607 1 1 10.4564 7.85429 1.52787
619 1 1 9.36438 8.94464 0.571373
7855 1 1 12.3621 7.61833 1.44047
1067 1 1 13.3269 7.9003 1.57085
7743 1 1 11.6014 7.92033 0.543503
186 1 1 13.1097 8.40408 0.582996
7800 1 1 14.877 6.23977 0.139543
552 1 1 14.5712 6.3953 1.29965
634 1 1 15.9749 5.72292 0.310959
549 1 1 15.6071 7.47956 0.539559
78 1 1 15.5757 8.71755 0.125917
1314 1 1 17.4254 9.04979 1.25762
7395 1 1 16.7025 9.35482 0.629074
7641 1 1 18.1849 7.35592 1.99366
1323 1 1 1.81898 8.87351 37.0303
7879 1 1 18.2899 8.68537 36.934
239 1 1 1.85524 9.83481 0.510531
153 1 1 2.51347 7.76611 0.223816
1048 1 1 4.20849 9.0439 0.354583
197 1 1 2.79786 10.3206 0.918832
222 1 1 5.74318 8.69837 37.3475
138 1 1 6.66553 9.66044 1.49763
7774 1 1 6.25995 9.75001 -0.00033244
1461 1 1 7.15977 8.3579 0.591053
7772 1 1 9.43526 9.97247 1.14708
1109 1 1 9.21042 10.8188 37.5693
7751 1 1 10.7207 9.74702 0.911896
303 1 1 11.4801 9.60001 2.06019
665 1 1 12.336 8.85098 1.28043
7432 1 1 12.6213 8.57197 2.29905
265 1 1 13.384 11.2284 36.02
7466 1 1 12.8466 9.81713 0.494389
230 1 1 14.9728 9.91803 0.222087
276 1 1 14.531 9.09081 0.852037
557 1 1 17.3146 8.9915 37.4012
4 1 1 17.3094 10.4029 1.53721
636 1 1 15.6181 9.74288 1.13487
7758 1 1 17.2505 7.83707 1.60387
1450 1 1 0.567039 11.2819 1.51658
1521 1 1 0.567606 9.93258 1.39576
598 1 1 3.16045 13.5377 0.141988
165 1 1 2.59299 11.6212 0.602207
1365 1 1 3.82077 10.7301 0.941048
7847 1 1 4.67786 10.2909 0.433692
7734 1 1 8.23401 10.1346 0.282134
536 1 1 8.59378 10.8458 1.71403
374 1 1 8.8175 11.8013 1.18609
976 1 1 10.8343 11.5505 1.18758
228 1 1 10.2454 10.6554 1.05521
1063 1 1 11.576 10.0706 0.270792
7912 1 1 11.8836 10.9807 0.85585
7428 1 1 12.7873 10.351 1.36441
308 1 1 13.8778 10.4916 1.04595
235 1 1 14.0603 11.4108 2.58804
236 1 1 16.3608 11.0683 1.48034
7875 1 1 14.9518 11.9606 37.4289
1389 1 1 15.5985 12.6943 2.20101
192 1 1 17.8072 10.3645 2.33377
7804 1 1 18.0799 10.5053 0.951022
962 1 1 18.2891 12.1378 36.5091
281 1 1 18.2044 9.66141 37.1488
84 1 1 18.5406 8.82175 0.56816
1154 1 1 0.498431 13.2079 0.979088
7880 1 1 1.36696 11.8926 1.00757
365 1 1 4.25957 11.9568 1.19019
1089 1 1 5.11382 12.8149 1.75963
613 1 1 5.40785 11.473 1.96764
7499 1 1 5.28127 12.0098 1.01442
7808 1 1 7.78807 11.6716 1.08464
687 1 1 6.28018 12.7365 1.77008
1098 1 1 6.45395 11.1611 1.20369
296 1 1 7.93809 12.7521 1.51553
660 1 1 9.99844 12.8 0.872455
705 1 1 11.5636 12.3673 0.647138
269 1 1 12.9983 12.2111 0.794607
7903 1 1 13.2696 13.9835 0.253888
273 1 1 12.3235 13.1743 0.259345
639 1 1 16.8119 12.3241 1.96433
1078 1 1 16.1151 11.5654 0.365615
1040 1 1 16.9165 14.3348 0.494797
7525 1 1 0.145928 12.6407 37.1579
204 1 1 17.6511 14.532 1.25289
404 1 1 3.04752 14.1701 2.59499
7835 1 1 3.11839 12.7588 0.961937
643 1 1 3.86328 15.3318 0.312345
1010 1 1 6.06822 13.6537 2.42001
287 1 1 5.78578 14.8629 0.857773
567 1 1 6.29763 13.0316 36.6561
342 1 1 6.36605 14.2214 0.295716
344 1 1 8.48101 13.5585 1.02971
1573 1 1 7.5226 14.016 1.85686
697 1 1 9.58098 11.5026 0.552239
602 1 1 10.0863 13.8802 0.580009
982 1 1 12.0916 14.2982 37.6021
379 1 1 12.659 15.3728 37.6807
7834 1 1 13.4287 13.7946 1.51806
7440 1 1 14.5914 14.0524 0.440381
674 1 1 14.9759 12.8902 0.469488
7561 1 1 15.7701 14.504 0.603505
7925 1 1 16.2631 13.2275 0.692596
7844 1 1 17.3951 15.4693 1.15675
683 1 1 15.4547 13.7791 1.47189
7924 1 1 18.0275 12.3898 0.0565837
397 1 1 17.8969 14.7151 0.250073
1125 1 1 1.45462 17.244 0.199265
648 1 1 2.54638 16.794 0.220855
7888 1 1 4.40983 13.8294 2.97705
700 1 1 7.27428 15.8579 0.860275
332 1 1 5.77147 16.2686 1.28557
7930 1 1 5.96436 16.3911 37.4398
7937 1 1 8.00842 14.3826 0.500967
743 1 1 9.01998 14.0296 0.0352141
249 1 1 10.9162 14.4016 37.2193
7858 1 1 9.65266 15.4328 0.269029
658 1 1 10.592 15.048 0.410755
7945 1 1 10.1194 15.5095 2.89092
666 1 1 13.6931 14.642 1.03231
7551 1 1 14.8619 14.7306 1.28299
749 1 1 14.4973 15.804 0.214531
7991 1 1 13.492 14.808 37.2995
314 1 1 16.7007 15.5243 0.274022
328 1 1 18.2736 17.9281 1.22072
7040 1 1 17.5914 17.1142 1.05793
797 1 1 1.04879 16.6479 36.7473
732 1 1 2.97867 17.794 37.2112
7650 1 1 0.811611 17.8109 37.0582
721 1 1 4.35275 17.6386 0.880836
1128 1 1 3.76793 16.7131 0.539736
771 1 1 3.56802 16.9671 2.08649
85 1 1 5.44694 16.7949 36.4628
775 1 1 6.3981 17.478 37.5782
1541 1 1 8.70105 17.0653 1.63395
7531 1 1 8.38053 17.516 0.740228
698 1 1 8.75958 16.361 0.386741
655 1 1 9.98584 16.9362 1.65532
304 1 1 11.7416 16.0133 1.33466
7983 1 1 10.7605 16.3328 0.807714
7994 1 1 12.4104 16.1401 0.564388
675 1 1 13.626 15.6894 0.981664
306 1 1 14.0577 16.6161 0.951386
7188 1 1 13.8241 17.6497 0.947038
7547 1 1 14.543 16.7315 37.2651
7990 1 1 13.5039 18.0843 36.8532
7881 1 1 15.2154 15.7125 1.21516
7228 1 1 16.5386 17.1775 1.04141
351 1 1 16.8497 16.7031 0.18546
7635 1 1 0.287948 17.0062 0.534915
7280 1 1 1.57198 18.4289 1.75678
7998 1 1 1.74574 17.6114 1.12925
731 1 1 2.60358 18.7778 37.6002
7972 1 1 2.62153 17.0323 1.18803
448 1 1 3.09708 17.8928 0.632351
7971 1 1 4.62821 18.0594 2.05023
363 1 1 5.18831 17.9771 0.259642
726 1 1 5.54413 0.536556 0.622436
60 1 1 6.10915 18.4686 1.17214
7539 1 1 7.50156 0.57372 1.3519
419 1 1 7.81362 18.5449 0.801922
67 1 1 8.83205 0.0332819 0.689279
382 1 1 10.5584 18.1021 1.9258
829 1 1 10.0362 18.501 37.544
742 1 1 10.3362 17.2453 37.4996
7938 1 1 10.7548 17.7197 0.628092
6836 1 1 12.1998 17.7556 35.6936
31 1 1 12.6589 17.7602 37.5742
7948 1 1 11.7782 17.2352 0.743358
7997 1 1 13.5245 18.4248 0.122074
7622 1 1 14.864 17.2754 0.705299
352 1 1 15.1504 18.3882 0.205215
7515 1 1 15.6956 18.6228 1.59096
395 1 1 15.5536 16.238 0.290895
7552 1 1 17.5287 18.5599 0.501217
752 1 1 18.5378 18.6109 2.40556
157 1 1 0.681545 18.143 2.40303
40 1 1 1.645 0.16612 3.08439
321 1 1 2.34426 0.596338 0.768398
1208 1 1 2.85533 0.2921 1.8126
41 1 1 3.93641 0.332099 2.13938
764 1 1 3.66498 18.7921 1.11608
1168 1 1 5.09525 0.387262 1.54296
774 1 1 5.71042 18.6158 2.16333
385 1 1 7.42276 0.724196 2.32069
850 1 1 8.08069 0.884462 3.05609
7626 1 1 9.5098 0.897399 2.3027
422 1 1 10.4853 0.227493 2.63569
824 1 1 12.2382 0.746449 2.25829
818 1 1 10.9139 18.0082 2.90045
1143 1 1 14.3359 1.91077 2.83378
784 1 1 13.2505 1.19756 1.90498
389 1 1 14.5977 18.5717 2.7712
798 1 1 15.2938 17.9059 2.37997
1106 1 1 16.1347 1.85674 0.925821
1272 1 1 15.0438 1.70506 0.833725
115 1 1 17.5149 1.54431 3.11045
835 1 1 0.47548 0.87656 1.65809
33 1 1 18.5591 18.3318 37.5435
833 1 1 18.2226 1.07237 2.10803
324 1 1 1.00267 2.19435 1.79506
35 1 1 0.0767862 1.53611 3.10424
362 1 1 2.58065 3.54403 2.59504
47 1 1 3.48672 1.50619 2.82798
491 1 1 3.50218 3.02402 3.28418
7616 1 1 5.73781 1.67151 3.02409
765 1 1 7.80968 3.02313 2.23224
7219 1 1 6.72278 1.61205 1.66493
93 1 1 8.16132 2.75908 3.47959
7698 1 1 9.00303 3.87593 3.2903
908 1 1 9.80884 2.58197 1.76521
470 1 1 9.15765 2.48643 4.20581
473 1 1 10.3778 2.97726 1.03017
869 1 1 12.0577 1.83543 1.89294
876 1 1 12.6804 2.56979 2.04931
30 1 1 13.0627 3.3691 0.67221
511 1 1 13.241 1.4183 0.635066
32 1 1 13.8695 2.11743 1.48593
787 1 1 14.7257 0.853192 2.38725
478 1 1 17.8528 2.35321 2.29969
514 1 1 16.3202 3.57331 2.89843
1675 1 1 18.7678 2.90075 2.5252
82 1 1 1.05522 4.12021 1.73797
899 1 1 0.977944 3.30061 2.66249
87 1 1 2.32937 4.7986 1.65225
488 1 1 2.42918 4.57886 3.75838
449 1 1 2.97831 5.5474 3.28748
475 1 1 2.4254 3.74035 1.44976
889 1 1 4.41352 1.8482 2.36263
454 1 1 3.58509 4.31076 1.66701
376 1 1 5.63034 3.99154 0.795001
504 1 1 6.12314 2.39371 2.44036
14 1 1 7.85482 3.79493 1.60485
500 1 1 10.6727 3.2953 2.23042
139 1 1 11.3926 2.46178 1.47363
460 1 1 11.3194 3.98773 2.14491
556 1 1 11.9628 4.62759 1.59782
7636 1 1 13.1395 4.15945 1.56155
34 1 1 13.4439 3.24427 1.92238
506 1 1 14.4942 3.37941 1.21233
113 1 1 15.1531 3.8068 2.23561
786 1 1 15.6974 4.39764 2.88295
480 1 1 17.4524 3.51788 2.90949
155 1 1 0.131934 3.16622 1.36558
1232 1 1 18.2805 2.2515 1.2611
1751 1 1 18.0573 2.57526 3.3755
523 1 1 1.71584 5.61509 2.20552
441 1 1 1.80551 6.70386 2.99995
1290 1 1 3.20444 5.70093 1.88948
1337 1 1 4.33322 5.16898 1.30755
1254 1 1 5.9211 5.7445 4.03922
102 1 1 8.36735 4.49089 0.996436
945 1 1 7.84022 4.72075 2.11398
1295 1 1 6.83492 5.06042 2.66481
7611 1 1 9.81864 3.7293 0.566552
814 1 1 9.6825 3.71111 1.69345
217 1 1 10.6962 4.90285 2.14882
909 1 1 11.5018 5.82799 2.86064
978 1 1 10.6146 4.21596 1.31253
538 1 1 12.005 4.83415 3.2891
150 1 1 12.6602 4.9127 2.28837
134 1 1 12.5377 5.87689 2.74483
420 1 1 13.0022 4.28558 2.97931
68 1 1 14.135 4.57844 2.83605
471 1 1 14.1934 4.55677 1.41873
944 1 1 13.8034 5.69574 2.52454
7986 1 1 15.0703 5.17267 2.1027
594 1 1 15.8025 6.17189 3.19273
550 1 1 16.211 5.34571 2.6889
519 1 1 17.9017 4.86978 2.72047
1315 1 1 18.7216 4.04789 1.84773
522 1 1 0.378496 6.12715 2.80543
1285 1 1 0.613466 4.97741 1.93301
7718 1 1 2.15604 7.48515 3.78951
922 1 1 1.0065 6.94929 2.34298
637 1 1 3.62233 6.28971 3.18968
886 1 1 3.46228 7.17705 1.51294
90 1 1 4.81835 7.13688 3.26579
53 1 1 5.71083 7.99248 3.00135
171 1 1 8.05784 6.69202 1.43557
1334 1 1 5.78958 6.77822 3.35331
1774 1 1 5.54839 6.58671 2.33113
530 1 1 8.26643 8.04055 1.2671
91 1 1 8.85326 6.94295 0.944017
616 1 1 9.27701 5.08407 2.50388
177 1 1 11.1038 7.25648 1.92286
973 1 1 10.6012 6.30669 2.5757
579 1 1 11.0078 6.52327 1.22514
551 1 1 11.8908 6.55838 2.27925
1036 1 1 12.6479 7.39356 2.45667
231 1 1 13.5417 6.96335 3.15406
546 1 1 14.844 6.77852 3.21404
196 1 1 15.5646 5.92915 1.31616
979 1 1 15.0286 6.90078 2.07083
881 1 1 16.3656 6.55802 2.38453
1360 1 1 16.7818 7.73429 2.48805
808 1 1 18.6211 6.40733 1.41595
1038 1 1 17.8042 7.13691 3.06802
481 1 1 0.303424 7.75137 2.27248
1806 1 1 1.51775 7.31994 0.170035
1488 1 1 1.46453 8.03541 2.1501
131 1 1 2.71562 8.2059 1.14513
645 1 1 4.95896 8.87375 2.50272
1045 1 1 4.03933 8.17546 2.09396
611 1 1 6.65076 7.60703 3.72612
1401 1 1 4.58602 6.77638 0.562556
1339 1 1 6.59856 6.69431 2.61508
1019 1 1 7.54946 7.8471 3.39097
647 1 1 7.92123 9.1914 0.988162
1327 1 1 9.73078 6.69043 1.5618
498 1 1 10.3099 7.4424 2.70451
140 1 1 11.5112 8.39082 1.77422
1023 1 1 13.3187 7.9525 2.99373
1429 1 1 14.1705 7.51776 2.3131
7714 1 1 15.565 8.05293 2.5893
958 1 1 16.0347 8.84872 1.77702
563 1 1 15.884 7.56648 1.67968
200 1 1 18.315 8.60511 2.21016
191 1 1 0.924597 8.30597 1.18439
124 1 1 1.1685 9.14367 0.343775
241 1 1 1.47258 9.24577 1.66727
564 1 1 2.53896 10.5005 2.55224
7684 1 1 2.64318 9.25539 1.70689
1366 1 1 4.60803 9.93459 1.69091
1287 1 1 3.58253 9.97536 2.44905
164 1 1 5.75141 8.38038 1.89441
357 1 1 6.14998 9.43489 2.26566
7841 1 1 3.86271 8.21433 0.918252
215 1 1 5.72197 9.93884 1.24176
566 1 1 6.5793 8.52035 2.65595
890 1 1 8.72958 8.14792 2.69073
178 1 1 9.55398 7.5207 2.0469
1417 1 1 8.38652 9.71631 1.68861
142 1 1 10.2381 9.83396 1.91407
1105 1 1 10.7252 8.72809 1.08412
7748 1 1 10.497 8.93108 2.42384
7827 1 1 11.7228 8.35067 2.76645
626 1 1 14.4944 8.01748 1.01339
188 1 1 13.2142 9.39983 1.41165
916 1 1 13.4748 9.1254 2.87352
568 1 1 0.576808 8.80328 2.13114
202 1 1 2.17088 10.3922 1.6043
1053 1 1 3.941 9.13556 1.60096
233 1 1 3.82829 10.8796 2.02459
1003 1 1 5.06188 10.5562 2.5459
925 1 1 6.32596 10.6133 2.09299
1061 1 1 7.03266 9.92272 2.43907
1420 1 1 7.36376 10.5669 1.11382
7817 1 1 6.61156 13.9846 1.35245
615 1 1 7.18141 11.2692 2.58567
333 1 1 10.0126 10.8676 2.50549
7862 1 1 9.27279 9.92454 2.28706
7780 1 1 11.2054 10.736 1.96223
624 1 1 10.4928 10.4436 3.42312
257 1 1 12.4055 11.7671 1.53431
1076 1 1 13.7848 10.0685 2.04633
614 1 1 12.1986 11.7171 2.58874
261 1 1 12.9391 10.7695 2.34111
600 1 1 13.7007 11.3793 1.4858
2238 1 1 17.3743 11.3921 1.93295
240 1 1 17.8797 10.5453 3.87866
270 1 1 18.2822 11.6201 1.34147
7921 1 1 1.75946 13.3135 1.48593
242 1 1 1.09413 10.4933 2.37046
7928 1 1 2.64297 11.4897 2.04067
968 1 1 18.7805 11.6524 3.66405
358 1 1 4.90021 10.935 1.22321
288 1 1 3.93779 11.9838 2.4181
7843 1 1 5.86482 11.8653 3.10758
337 1 1 6.0595 12.6629 3.80443
1532 1 1 6.6322 12.6969 3.00197
574 1 1 7.54417 12.8004 3.82034
216 1 1 8.09734 10.5242 2.74326
691 1 1 7.39839 13.1351 2.44514
16 1 1 8.91883 13.1591 3.00945
256 1 1 9.79354 12.1115 2.79175
259 1 1 10.6996 12.7643 1.59361
694 1 1 10.8958 11.8382 2.25638
254 1 1 12.8656 12.5212 2.4419
1069 1 1 12.2499 13.355 1.95076
592 1 1 14.0006 12.4031 0.0789147
1074 1 1 13.5974 12.7584 1.75776
271 1 1 14.8723 12.8909 1.58866
7840 1 1 15.4631 11.9617 1.21932
7838 1 1 15.0868 11.8757 2.39825
1035 1 1 17.3746 13.2655 0.949974
677 1 1 18.3759 12.7312 1.40872
1001 1 1 18.5446 10.9688 2.8413
720 1 1 17.1626 12.7977 2.77367
7442 1 1 0.979799 14.5968 0.553093
758 1 1 17.9244 13.2536 2.29016
7964 1 1 0.576647 13.4851 1.97329
7482 1 1 3.57923 13.2388 2.37525
685 1 1 2.84382 15.0301 1.80744
1529 1 1 4.37103 14.6485 1.11512
1081 1 1 6.21356 13.7206 3.39543
696 1 1 5.97442 14.7293 1.85665
7975 1 1 7.8401 15.1581 2.48771
740 1 1 9.46119 15.5572 2.21517
7856 1 1 7.83271 13.8913 3.24707
341 1 1 9.37043 14.6762 3.45797
213 1 1 9.10209 13.2533 1.91031
7864 1 1 9.28528 14.373 0.970496
1908 1 1 11.3362 14.6158 2.82286
229 1 1 11.4189 13.8503 1.93297
7829 1 1 13.0811 13.6195 2.6032
747 1 1 14.2439 12.8154 2.61715
277 1 1 13.4448 13.0959 3.38132
317 1 1 12.2389 15.2791 3.47055
278 1 1 16.0573 13.4679 2.87322
7480 1 1 14.8734 13.8871 2.46882
1474 1 1 17.6881 15.4474 2.09953
724 1 1 0.827781 13.9877 3.69562
7920 1 1 16.8489 14.6228 1.77172
769 1 1 18.5929 13.919 3.39748
282 1 1 0.837502 14.2412 2.71225
325 1 1 1.83723 14.8214 1.86438
243 1 1 4.05822 14.6974 2.4717
1136 1 1 5.03511 14.5261 2.4077
1526 1 1 2.93591 15.993 1.08356
411 1 1 6.96529 14.8848 2.17747
373 1 1 7.54001 15.8623 1.86294
1145 1 1 8.60383 15.1435 1.17757
7214 1 1 7.79996 16.4296 3.20895
7543 1 1 9.70969 14.3835 2.39749
1533 1 1 12.0555 16.9443 1.84417
736 1 1 10.3209 15.1266 1.61146
662 1 1 12.2408 14.1846 2.77756
1151 1 1 12.3743 15.5766 2.0558
699 1 1 12.8884 14.727 1.69779
670 1 1 15.1773 15.8617 2.12128
1153 1 1 14.4889 15.0918 2.44092
7870 1 1 17.4033 15.6963 3.00137
590 1 1 15.6374 14.7754 2.13604
1199 1 1 18.6222 14.1054 1.21989
394 1 1 18.3662 16.4376 2.27911
7887 1 1 0.757728 15.1363 1.88581
399 1 1 1.13577 17.0561 2.62729
1198 1 1 1.77932 16.2581 1.45569
330 1 1 3.23663 15.231 2.84363
812 1 1 4.99385 16.944 1.63052
370 1 1 4.96076 15.9401 0.525309
7573 1 1 5.44337 15.5797 2.11654
7610 1 1 5.24295 17.0133 0.585363
29 1 1 7.73251 18.3225 2.09247
777 1 1 5.63847 17.0423 2.40325
690 1 1 7.69283 16.8759 1.69355
381 1 1 9.2216 16.3523 2.99182
1114 1 1 9.97528 17.0136 3.66584
701 1 1 9.19575 16.4669 4.40894
1142 1 1 13.1268 16.4792 1.55755
7913 1 1 13.6306 17.8331 2.2839
7125 1 1 15.5608 16.8108 2.59318
709 1 1 15.6802 17.5447 3.2859
1158 1 1 18.7409 15.524 1.40005
837 1 1 16.682 16.7967 2.5851
766 1 1 0.0527449 17.3916 1.82069
12 1 1 0.875471 17.0079 1.44166
436 1 1 1.93944 18.0248 2.84979
7651 1 1 2.47007 16.9963 2.20177
336 1 1 2.89237 17.7793 2.89063
5 1 1 2.7835 17.9633 1.81477
1301 1 1 5.37098 17.8383 1.3259
27 1 1 7.15838 18.5489 2.947
779 1 1 8.38831 18.5038 3.25329
820 1 1 9.59882 17.4366 2.41212
7628 1 1 8.6657 17.166 3.13113
7627 1 1 9.81212 18.0773 3.19228
316 1 1 11.3916 18.2205 1.24274
64 1 1 12.6727 17.6211 1.37963
7478 1 1 13.8057 0.334494 2.13184
7872 1 1 14.5546 17.0268 2.11271
7155 1 1 16.3278 18.3639 2.45243
1110 1 1 17.0212 0.772796 2.05937
364 1 1 17.2941 18.0189 1.72302
753 1 1 17.6277 17.2243 2.49554
1954 1 1 0.956512 17.8335 3.41342
843 1 1 3.88322 18.775 4.24717
853 1 1 2.94513 0.569035 3.77107
292 1 1 4.01432 0.720167 3.51493
1932 1 1 3.13111 0.0314618 2.81457
1260 1 1 3.25561 0.783308 4.86628
772 1 1 4.8522 0.026889 3.79607
452 1 1 5.51969 0.840682 3.81427
861 1 1 6.30704 0.356405 2.75846
734 1 1 6.84349 1.06212 4.84399
17 1 1 7.03015 1.14572 3.14419
1180 1 1 7.72311 0.769494 3.98815
410 1 1 7.85593 18.1957 4.50903
906 1 1 9.91571 1.37412 3.67642
1138 1 1 11.2977 0.410976 4.30589
7984 1 1 12.5009 17.7644 2.56183
26 1 1 13.9326 0.939745 3.00666
792 1 1 13.2783 18.7863 5.49595
949 1 1 14.9982 1.19775 3.49511
433 1 1 15.6524 0.480348 2.99271
702 1 1 15.5206 0.571818 4.93007
800 1 1 16.6116 0.0826183 3.52704
1640 1 1 16.2692 0.63871 4.22167
794 1 1 18.1951 0.347223 3.47144
1160 1 1 1.23319 1.21982 2.977
1670 1 1 16.3053 1.65096 3.36253
1644 1 1 1.44027 2.35776 2.6965
1637 1 1 0.163673 3.94026 2.85474
913 1 1 1.6621 2.92178 1.6741
1201 1 1 2.47783 2.21871 2.02799
802 1 1 2.67615 2.22896 3.85964
1250 1 1 4.87063 0.929188 2.94495
1130 1 1 7.31681 2.18182 2.823
863 1 1 7.13036 1.73529 4.08472
854 1 1 9.1658 1.76996 3.26433
810 1 1 8.10682 2.10747 4.41786
71 1 1 11.3456 0.800582 3.40789
1345 1 1 9.72718 1.81404 4.65393
7632 1 1 12.7701 0.35112 3.0496
1377 1 1 11.5293 3.02488 4.46914
7779 1 1 10.9142 1.51156 1.65708
151 1 1 13.6743 2.19883 3.83385
1597 1 1 13.3559 3.06733 3.0172
465 1 1 12.6885 2.55725 3.97785
1713 1 1 15.0696 2.65274 1.51723
910 1 1 15.0744 2.36866 3.71853
1265 1 1 16.0447 3.13683 3.74412
2432 1 1 16.1153 2.23725 2.29706
2197 1 1 17.3534 3.33521 4.26
2029 1 1 17.9967 1.27466 4.24305
852 1 1 3.00855 4.49529 2.62175
883 1 1 1.71156 5.25929 3.0864
1241 1 1 0.881192 6.24078 3.84178
450 1 1 1.38871 4.09717 3.70746
7697 1 1 4.79325 3.84883 1.8257
1210 1 1 4.57761 2.42544 3.43798
1206 1 1 3.16749 3.12347 4.43549
7607 1 1 5.50346 3.34887 3.90891
1299 1 1 5.59076 4.43837 4.33495
1181 1 1 7.10603 3.19369 3.03935
104 1 1 6.43399 4.71765 3.80561
7 1 1 9.80847 3.24403 3.58406
971 1 1 10.8783 3.52709 3.42801
588 1 1 12.3228 3.90923 3.86401
862 1 1 11.2692 2.56697 3.12934
427 1 1 12.0736 3.66109 2.72878
1196 1 1 14.3981 3.3834 2.93279
558 1 1 15.0132 3.92245 4.35264
474 1 1 15.342 3.24208 3.0386
112 1 1 16.6587 2.59139 3.12336
603 1 1 0.910875 5.06376 4.48422
1673 1 1 2.30707 6.14681 3.69715
959 1 1 0.671803 7.24377 4.17493
887 1 1 3.17052 5.28522 5.26753
98 1 1 3.85555 5.03206 3.64013
1280 1 1 3.27831 4.14408 3.74871
767 1 1 5.12324 5.04552 3.16985
1340 1 1 7.57908 4.21332 3.5201
1739 1 1 8.28349 4.84968 3.1795
1310 1 1 8.88298 4.33626 1.78809
938 1 1 10.0943 5.24453 3.07314
1385 1 1 10.0597 2.94773 4.55905
1714 1 1 12.0558 6.05652 3.77231
1194 1 1 14.7617 5.78525 3.0899
912 1 1 13.7898 3.97481 3.96073
7754 1 1 14.1518 5.09762 4.11066
515 1 1 14.9822 4.55789 3.58768
156 1 1 15.6818 5.10538 4.91199
1316 1 1 16.3304 5.35433 3.93533
1033 1 1 16.3238 6.39052 4.40441
120 1 1 18.2479 3.94038 3.92213
1685 1 1 0.569721 4.18678 4.86437
486 1 1 18.7009 6.90892 3.49583
966 1 1 2.85825 7.71651 4.61885
884 1 1 1.57175 6.52241 4.54116
848 1 1 3.83783 6.13065 4.73884
1769 1 1 4.43196 5.68503 2.44969
1780 1 1 5.08036 6.23959 4.63157
1373 1 1 5.32172 4.76193 2.13617
975 1 1 5.50347 7.40583 4.31945
1296 1 1 6.16434 6.60599 4.81458
1026 1 1 8.32598 6.07802 2.97947
1331 1 1 7.30367 6.88512 4.12358
1413 1 1 9.2607 5.35125 3.70682
555 1 1 10.1155 7.1189 3.71452
1374 1 1 9.50586 6.23984 3.1737
1066 1 1 10.7532 6.04859 3.85645
553 1 1 9.61253 4.44247 4.03671
7712 1 1 11.3927 7.013 3.00937
509 1 1 13.0608 5.97067 4.44139
1350 1 1 13.3064 6.90895 4.89351
995 1 1 13.9669 6.29176 3.80965
870 1 1 15.6522 8.10046 5.31828
193 1 1 15.4991 7.5811 3.66609
593 1 1 16.7682 6.92036 3.20119
1443 1 1 17.3747 6.18816 2.40074
560 1 1 17.1134 7.23874 4.20029
483 1 1 0.185527 5.33454 3.62306
7721 1 1 18.7574 8.02961 3.43265
489 1 1 2.56506 7.46621 2.73324
531 1 1 2.69429 9.38841 2.9157
1414 1 1 2.05905 8.42742 5.27127
46 1 1 3.76543 8.11575 5.48285
1330 1 1 3.72987 8.58057 2.98264
1041 1 1 4.37696 9.39326 3.21008
936 1 1 4.44109 7.52482 4.1221
580 1 1 4.99893 8.5811 3.55619
180 1 1 7.40741 8.19259 4.44898
1302 1 1 7.18773 6.02434 3.2833
7850 1 1 8.66379 7.80146 3.91903
865 1 1 6.93662 7.5504 5.28167
1017 1 1 9.28163 9.04584 1.71997
1308 1 1 9.32216 7.36849 3.2306
628 1 1 11.1161 8.29036 4.98218
606 1 1 12.2357 7.58696 3.52513
108 1 1 14.518 8.13672 3.33363
1020 1 1 10.9888 7.10389 4.20497
1425 1 1 11.3488 7.20296 5.51981
942 1 1 12.2238 6.37872 5.10244
1037 1 1 14.0879 8.4426 1.95551
1441 1 1 14.6198 7.65586 4.47716
960 1 1 16.3177 8.11087 3.32292
1353 1 1 15.517 8.64649 4.07619
2357 1 1 16.6707 8.70008 2.60933
997 1 1 17.6215 9.32696 2.62389
1757 1 1 17.6226 8.11039 3.11712
1802 1 1 1.01922 8.06192 3.8476
315 1 1 18.5952 10.1112 4.52021
1034 1 1 0.261105 9.13657 4.16942
1442 1 1 0.941651 8.21662 2.91284
1322 1 1 1.25002 8.80677 4.55353
1724 1 1 2.10021 9.55893 4.11285
1085 1 1 6.41266 9.36437 3.69844
130 1 1 7.50095 9.16683 3.29181
539 1 1 8.69286 8.85054 3.66244
653 1 1 8.37553 9.15755 2.67724
649 1 1 9.87939 8.16247 3.90702
587 1 1 8.6404 9.88378 3.44179
586 1 1 9.52319 9.23079 4.41235
232 1 1 9.84367 9.49289 3.41388
136 1 1 10.9118 8.77132 3.49655
1031 1 1 12.3098 9.61455 3.00208
1065 1 1 11.1644 9.5392 4.0361
1057 1 1 12.0563 7.79341 4.60664
1073 1 1 13.123 9.97682 3.73119
591 1 1 13.9201 9.25113 3.77174
914 1 1 14.9223 9.4826 3.82516
1395 1 1 15.486 9.00312 3.06114
7397 1 1 16.5417 9.72516 2.11353
961 1 1 18.2586 11.4151 4.4153
1405 1 1 1.56166 9.04594 3.23675
1403 1 1 0.429501 10.4536 3.54424
1410 1 1 1.88962 11.1139 3.21174
1484 1 1 1.74402 12.359 2.5733
1282 1 1 4.96477 11.6871 2.83709
1820 1 1 4.27416 9.75061 5.02679
1002 1 1 5.8182 10.9495 3.7817
1050 1 1 6.79387 10.4269 3.45861
1415 1 1 5.48281 12.0072 4.38739
932 1 1 6.36387 11.4435 5.36632
1091 1 1 6.11084 13.1078 5.85436
610 1 1 7.78505 10.4314 3.94478
1102 1 1 8.30613 12.2095 2.49546
1135 1 1 8.3239 11.5472 4.31992
1822 1 1 10.0041 10.2377 4.43216
622 1 1 11.8466 11.6299 3.89086
993 1 1 15.1207 9.75741 2.3603
1430 1 1 13.1593 10.9812 3.95185
1538 1 1 14.1616 10.0979 3.11125
1072 1 1 15.1245 11.0573 3.12677
2234 1 1 15.8837 10.8676 2.4826
1825 1 1 16.1859 11.4253 3.37246
311 1 1 16.2156 10.253 3.27895
608 1 1 16.2033 12.0787 4.19216
1475 1 1 17.0193 10.9883 3.01691
757 1 1 0.233325 12.0199 5.51017
1005 1 1 1.63384 11.3245 1.80685
597 1 1 18.1458 12.1432 5.05327
1444 1 1 3.58026 12.3921 3.39517
1406 1 1 0.289505 12.1714 4.50963
246 1 1 3.66263 11.0552 3.15612
1008 1 1 4.71741 12.665 4.15552
659 1 1 7.41752 11.5427 3.91669
604 1 1 6.64815 12.6044 4.94089
661 1 1 7.04245 11.0861 4.69268
1104 1 1 6.82522 12.3811 6.01139
621 1 1 8.67272 13.134 4.13129
1182 1 1 9.77195 13.4521 3.91373
1983 1 1 8.9262 12.5304 5.01661
1509 1 1 11.6472 12.7455 2.55914
211 1 1 10.2036 11.3709 3.83034
7784 1 1 12.0594 12.9467 3.9236
663 1 1 12.812 12.2389 3.47006
667 1 1 13.7354 12.2089 4.11597
1437 1 1 14.3205 11.7908 0.798646
669 1 1 14.1029 11.2337 3.51851
1042 1 1 16.1146 12.4149 3.17308
1030 1 1 16.9772 13.0817 3.9366
1149 1 1 18.1964 12.858 3.12904
1368 1 1 17.2715 12.1101 3.66009
1880 1 1 17.4111 13.164 4.96173
1007 1 1 1.72277 12.9533 4.59636
755 1 1 1.06046 13.0505 3.53665
1163 1 1 2.59357 12.8125 3.25965
686 1 1 5.29002 13.0291 2.78086
7900 1 1 6.09674 15.1989 2.81633
1047 1 1 7.03397 13.6621 4.2736
7541 1 1 7.65253 12.5704 5.20716
627 1 1 6.83654 14.4297 3.67449
2343 1 1 8.64632 14.4411 2.47162
225 1 1 10.1582 13.4304 2.766
1537 1 1 10.6472 14.5359 3.82337
1108 1 1 12.3432 14.0808 3.79152
630 1 1 13.2529 13.7338 4.31343
1070 1 1 11.9125 14.4121 5.37797
715 1 1 14.354 13.1738 3.77704
305 1 1 14.3755 14.6227 3.92119
1183 1 1 15.8679 14.8723 3.95849
629 1 1 15.2129 13.7429 3.47374
678 1 1 16.2028 13.9927 3.70129
1004 1 1 16.856 13.4013 1.85362
1046 1 1 17.223 13.73 3.15327
682 1 1 1.23406 15.1171 3.10126
280 1 1 18.5871 15.3073 3.02651
727 1 1 1.98711 13.352 2.6419
1514 1 1 1.95731 14.434 3.22436
816 1 1 1.72713 15.0352 4.1766
773 1 1 3.35738 15.4816 3.83348
1131 1 1 3.34109 14.3846 3.73682
1217 1 1 4.43555 15.499 3.14466
1453 1 1 4.73471 14.6353 3.74174
1530 1 1 5.92238 16.0631 3.35718
1133 1 1 5.26759 15.7643 4.18403
286 1 1 6.98493 15.8593 3.25828
1531 1 1 7.96398 14.9973 4.22595
1170 1 1 8.46835 15.3187 3.40741
737 1 1 10.5948 16.4886 4.74632
1192 1 1 10.9739 16.3784 3.6385
668 1 1 13.8121 15.819 2.18777
1506 1 1 11.2786 15.9672 2.42013
1059 1 1 13.2304 14.9138 3.89846
672 1 1 13.6381 14.492 2.99251
1427 1 1 13.9205 15.6773 3.39519
1147 1 1 14.7183 16.2846 3.34675
234 1 1 15.8472 16.1754 3.59809
1596 1 1 15.3275 15.3488 3.25829
310 1 1 16.4532 14.4765 2.84047
759 1 1 17.0955 16.4346 4.55483
2037 1 1 17.7457 14.633 3.53874
1561 1 1 0.196406 14.5455 4.69006
791 1 1 18.2132 14.2764 2.41251
873 1 1 2.31226 15.6964 2.25703
1195 1 1 0.017213 16.3013 4.26526
1233 1 1 1.33424 16.3243 4.09012
1566 1 1 1.76421 17.1592 3.84467
1172 1 1 3.52205 16.2108 3.16996
1129 1 1 2.27623 15.4309 3.30522
340 1 1 5.27175 17.5983 3.30849
1134 1 1 3.2806 17.6076 3.84793
7615 1 1 6.19703 16.3249 4.83171
605 1 1 6.66684 16.7528 2.22041
19 1 1 7.49983 17.2166 2.64634
260 1 1 7.58478 17.6079 3.59148
1064 1 1 8.95511 15.1988 4.69856
783 1 1 9.56177 17.646 4.79858
1176 1 1 10.17 15.5058 4.78472
1472 1 1 12.8141 16.587 4.89724
1226 1 1 12.6748 16.53 2.6801
353 1 1 14.7313 16.7371 5.03045
716 1 1 15.0487 17.2982 4.12703
7923 1 1 14.2517 17.9684 4.42647
745 1 1 14.5629 17.7901 3.41784
437 1 1 17.0957 16.575 3.49787
312 1 1 18.0588 17.2202 3.82528
1999 1 1 18.2525 15.3599 4.55622
443 1 1 -0.00853195 16.2969 3.24378
412 1 1 2.37248 18.6066 3.903
1251 1 1 2.46367 17.5245 4.61799
487 1 1 4.39818 16.642 2.6989
815 1 1 4.75648 17.9625 4.30314
855 1 1 6.05705 18.2934 3.31178
1140 1 1 4.98897 18.5513 2.84758
7901 1 1 6.53122 18.021 2.3058
704 1 1 6.80859 18.2326 4.22883
1178 1 1 7.72721 1.86108 1.76157
417 1 1 9.32752 0.239271 2.99881
468 1 1 8.73404 17.7748 4.1315
1213 1 1 8.65525 0.0455398 4.05244
821 1 1 10.1841 0.377262 3.80851
1186 1 1 10.8465 17.9489 4.72156
11 1 1 13.42 18.4473 4.24787