ITEM: TIMESTEP
600
ITEM: NUMBER OF ATOMS
8000
ITEM: BOX BOUNDS pp pp pp
0.0000000000000000e+00 1.8820720577620570e+01
0.0000000000000000e+00 1.8820720577620570e+01
0.0000000000000000e+00 3.7641441155241139e+01
ITEM: ATOMS id mass type x y z
1 1 1 0.424444 18.6738 37.0444
2 1 1 0.56779 0.676622 0.0704617
3 1 1 0.920041 0.955131 1.6466
4 1 1 0.717733 2.82893 0.0970142
5 1 1 1.64351 1.22717 0.246164
6 1 1 4.55668 1.53637 37.2231
7 1 1 3.2053 2.30871 0.234486
8 1 1 1.26224 1.80988 0.981029
9 1 1 4.43938 0.826376 35.5557
12 1 1 3.8168 1.30054 0.760869
10 1 1 5.2091 2.4227 0.782035
11 1 1 6.64714 0.859735 1.00837
13 1 1 4.83944 18.3203 0.473999
16 1 1 5.72121 0.846003 37.5479
14 1 1 5.50753 3.81239 0.178959
15 1 1 7.12032 17.9493 2.59189
17 1 1 7.42116 18.5262 36.6297
18 1 1 9.15554 1.8698 35.7972
19 1 1 8.02166 17.7655 0.736273
20 1 1 7.6889 0.586305 0.272179
21 1 1 9.21105 15.4299 36.848
24 1 1 11.307 0.0590929 36.2892
22 1 1 11.5354 0.689379 37.0525
23 1 1 10.1885 17.7427 37.5063
25 1 1 10.2521 0.463982 37.2218
28 1 1 10.5204 1.5634 36.967
26 1 1 10.7966 2.23192 0.781413
27 1 1 11.18 18.7418 2.20268
29 1 1 11.3745 18.532 37.2613
30 1 1 14.2508 1.79014 37.5791
31 1 1 13.5293 0.510574 37.4051
32 1 1 14.134 0.464122 1.0116
33 1 1 15.2761 0.999821 37.5035
36 1 1 15.1813 1.88028 0.546658
34 1 1 16.3128 3.20747 36.9361
35 1 1 18.5725 1.22421 0.880939
37 1 1 17.2531 1.01039 0.153584
40 1 1 17.5037 1.89442 0.779696
38 1 1 18.2835 0.0348673 37.3981
39 1 1 17.7512 18.7983 0.61921
41 1 1 1.56576 3.60684 0.322897
42 1 1 0.667529 4.28009 1.0704
43 1 1 1.98368 1.05311 2.64573
44 1 1 0.244312 3.70556 2.55782
45 1 1 2.10967 2.08035 0.0655418
46 1 1 1.01546 3.1748 2.06747
47 1 1 4.18475 2.4687 1.32819
48 1 1 2.65968 3.94458 36.5257
49 1 1 4.57274 4.27478 37.6178
52 1 1 2.89953 1.72437 35.8442
50 1 1 3.74965 3.15902 0.309642
51 1 1 5.97313 1.66445 0.407594
53 1 1 6.97098 2.41056 37.2792
56 1 1 4.81877 1.57902 1.15862
54 1 1 7.23784 3.73439 37.4503
55 1 1 7.00371 2.58875 1.72905
57 1 1 8.71414 0.239485 0.505414
58 1 1 10.6107 2.88523 37.1705
59 1 1 10.0336 1.88747 0.26603
60 1 1 8.2892 1.46691 0.870721
61 1 1 8.35939 2.55313 35.2048
64 1 1 11.3202 2.9478 1.76465
62 1 1 12.4544 2.67233 37.5595
63 1 1 11.9872 1.05865 2.83486
65 1 1 12.2173 2.62736 1.14353
68 1 1 13.2523 3.40084 0.67437
66 1 1 13.2848 2.13291 0.237591
67 1 1 11.901 0.934448 0.581652
69 1 1 13.8878 4.02321 35.769
70 1 1 15.3776 5.14799 36.3359
71 1 1 14.3515 2.42605 0.724958
72 1 1 14.5453 3.8749 0.0295236
73 1 1 14.9246 2.61684 37.2872
76 1 1 14.63 3.63377 0.997481
74 1 1 16.1632 4.70005 0.435185
75 1 1 15.488 3.40068 0.114134
77 1 1 18.5748 2.4097 37.5694
80 1 1 16.8834 4.3066 1.53236
78 1 1 18.0958 3.79199 37.1337
79 1 1 17.2588 2.42292 1.59817
81 1 1 18.428 5.17085 0.363279
83 1 1 2.55534 4.08433 0.174402
85 1 1 3.71471 4.33332 36.2444
87 1 1 1.78216 2.81967 0.80576
89 1 1 4.77731 3.35497 1.10922
91 1 1 5.35162 4.62969 1.18852
93 1 1 5.343 5.20576 37.2017
95 1 1 7.9526 5.07834 0.015727
97 1 1 8.48653 2.81777 0.843096
99 1 1 6.57097 4.25322 1.04517
101 1 1 10.2935 4.94566 36.6629
103 1 1 11.3859 4.40588 1.16948
105 1 1 12.2218 3.68895 37.5584
107 1 1 14.0906 5.24536 0.0272742
109 1 1 13.6939 3.34061 37.3763
111 1 1 14.3578 4.78596 1.13673
113 1 1 15.1909 4.73014 0.0542656
115 1 1 17.3466 3.39698 0.998691
117 1 1 17.2508 3.68029 36.4749
119 1 1 16.794 3.27284 2.46151
82 1 1 0.541205 5.60863 1.07043
84 1 1 17.8354 5.42634 1.1726
121 1 1 1.46628 5.02054 1.04066
123 1 1 2.28436 8.14061 37.1476
86 1 1 3.50757 4.25972 0.754573
88 1 1 0.730447 5.59709 2.16972
125 1 1 1.82744 6.69367 1.94817
127 1 1 1.81107 5.87407 0.288063
92 1 1 3.93329 5.48756 2.48683
129 1 1 4.30216 7.90322 37.1693
90 1 1 5.26253 5.80191 0.614912
96 1 1 6.64429 5.26487 1.97908
131 1 1 3.84549 5.07511 1.30578
133 1 1 5.01366 7.01833 37.0627
94 1 1 5.59694 6.15283 36.7482
135 1 1 7.73371 5.64698 2.06686
98 1 1 9.46747 4.539 2.35326
100 1 1 9.40571 3.84296 0.688733
137 1 1 8.97965 5.87698 36.7888
139 1 1 10.3432 5.84408 0.30877
104 1 1 10.041 3.84571 37.2637
141 1 1 7.86453 4.27538 35.2212
102 1 1 10.4395 4.76053 0.695137
108 1 1 11.819 5.18134 1.93275
143 1 1 9.58777 4.69631 37.6466
145 1 1 12.142 5.99188 37.4631
106 1 1 12.253 5.06518 0.452287
147 1 1 12.0162 6.80211 0.6405
110 1 1 13.4563 4.66898 37.0666
112 1 1 14.035 5.81449 1.29112
149 1 1 13.109 5.90666 0.393972
151 1 1 14.5683 4.14791 2.48845
116 1 1 15.3306 5.32842 1.20886
153 1 1 16.8054 6.24778 37.2302
114 1 1 14.8653 5.85111 37.0511
120 1 1 16.9358 5.28238 0.87597
155 1 1 15.5692 3.68444 2.37624
157 1 1 17.8484 4.44977 1.32857
118 1 1 17.3471 7.19431 37.4093
159 1 1 18.385 3.98218 0.560117
122 1 1 0.709992 5.56684 0.070321
124 1 1 17.1856 7.82168 2.43993
126 1 1 2.38326 4.76896 36.8914
128 1 1 1.88581 6.79024 37.4811
132 1 1 2.41354 6.62206 0.76203
130 1 1 6.42753 6.42229 1.01357
136 1 1 6.3978 7.25864 2.26767
134 1 1 9.37559 6.71332 0.862325
138 1 1 8.60871 7.01114 37.1286
140 1 1 9.75262 5.90721 2.78438
144 1 1 9.70582 6.70492 37.4405
142 1 1 10.2653 5.85334 36.7578
148 1 1 12.356 8.17486 37.2065
146 1 1 13.0391 7.60466 0.791642
150 1 1 14.1312 7.89982 36.9505
152 1 1 13.4171 6.08432 2.36003
156 1 1 14.4579 5.28863 2.96312
154 1 1 15.3221 7.42143 37.0714
160 1 1 16.0903 5.55945 2.71647
158 1 1 1.08452 6.54306 1.21735
161 1 1 1.01271 7.24922 0.228845
162 1 1 1.11025 8.37334 36.5213
163 1 1 0.573357 7.64487 1.09395
164 1 1 18.7169 8.43368 37.6167
165 1 1 1.29108 7.36378 36.5496
166 1 1 3.4541 9.47559 36.0732
167 1 1 4.26816 8.9254 37.2152
168 1 1 3.11201 9.09422 36.8509
169 1 1 5.6721 7.27524 36.2353
172 1 1 5.028 9.97061 0.308812
170 1 1 4.9183 8.44699 0.327075
171 1 1 5.29156 7.00684 1.73067
173 1 1 8.31369 6.4172 1.3491
176 1 1 4.23529 7.64256 2.19647
174 1 1 6.1301 8.47602 35.8576
175 1 1 6.62129 8.23796 1.2333
177 1 1 10.3155 7.72366 37.4114
178 1 1 9.51107 8.61565 0.142543
179 1 1 8.64473 8.34882 0.741886
180 1 1 7.53502 8.38391 2.47079
181 1 1 11.3282 7.64942 36.2224
184 1 1 9.90419 8.03048 0.908705
182 1 1 10.9383 8.81839 36.8316
183 1 1 11.1832 7.27494 0.183882
185 1 1 10.3825 8.43394 35.8603
188 1 1 12.0566 8.04909 0.910149
186 1 1 13.0641 10.0996 37.4334
187 1 1 12.6256 9.22015 0.296943
189 1 1 11.7477 9.68259 37.3302
190 1 1 14.7842 8.31968 0.409587
191 1 1 14.4339 6.74747 36.6614
192 1 1 14.0336 9.90511 36.565
193 1 1 16.1749 6.14255 1.58844
196 1 1 14.9321 7.94067 1.39846
194 1 1 16.5405 8.21495 1.01011
195 1 1 16.8446 7.14732 1.76778
197 1 1 17.9107 8.83753 0.393515
200 1 1 17.6599 10.0042 0.057926
198 1 1 17.937 8.2151 37.0483
199 1 1 0.0244152 7.37452 37.154
201 1 1 0.29738 9.09344 36.0883
203 1 1 1.92389 8.78249 1.0351
205 1 1 1.75345 10.1687 0.627321
207 1 1 2.67832 9.40778 0.720238
209 1 1 4.00911 9.93081 0.605649
211 1 1 4.61915 10.7362 1.27398
213 1 1 6.15517 11.7312 37.0491
215 1 1 6.04357 8.93955 0.64053
217 1 1 7.48344 6.72105 0.772141
219 1 1 9.18607 7.49419 0.249662
221 1 1 9.69621 9.90982 1.39293
223 1 1 10.7073 9.76276 0.259092
225 1 1 10.2553 10.713 0.500606
227 1 1 12.3483 10.0975 1.10209
229 1 1 11.9188 10.5631 36.6607
231 1 1 15.9641 8.46133 36.7205
233 1 1 17.6135 10.1005 36.4625
235 1 1 16.0275 8.48847 1.82637
237 1 1 15.5477 9.5605 37.2007
239 1 1 0.211272 9.53607 0.916983
202 1 1 0.716832 8.66705 2.44641
204 1 1 0.827956 9.41301 0.049442
241 1 1 18.2611 11.5758 1.15179
243 1 1 1.48532 12.2688 1.82264
206 1 1 2.50954 11.009 0.669765
208 1 1 2.13033 10.508 2.5867
245 1 1 1.52535 11.5345 0.988961
247 1 1 3.19423 12.9433 3.43162
212 1 1 3.6797 10.8361 1.16765
249 1 1 6.20501 12.403 0.887681
210 1 1 5.13317 9.2703 36.6258
216 1 1 6.63838 11.3174 1.75026
251 1 1 4.68015 12.179 1.721
253 1 1 5.72127 12.168 2.53246
214 1 1 8.32153 8.86077 34.9987
255 1 1 7.5165 11.6063 2.83333
218 1 1 9.09417 9.07215 2.0991
220 1 1 8.63106 9.24755 0.157823
257 1 1 7.58407 13.8444 1.26667
259 1 1 8.64687 13.0414 1.19686
224 1 1 8.59241 10.3762 1.67379
261 1 1 7.96746 11.8084 0.0139311
222 1 1 7.33362 10.246 0.0964049
228 1 1 10.7546 11.6402 1.1664
263 1 1 12.0477 11.0382 2.03535
265 1 1 13.1676 11.3751 2.01088
226 1 1 11.5057 11.6364 37.3566
267 1 1 13.371 10.7223 2.85638
230 1 1 14.178 10.3874 0.47945
232 1 1 15.0285 9.13699 1.38723
269 1 1 13.8314 10.4773 1.40043
271 1 1 15.4353 12.0037 0.90783
236 1 1 15.4778 10.0006 0.487136
273 1 1 15.1639 11.122 0.101811
234 1 1 16.6123 11.5807 36.454
240 1 1 17.7101 11.1534 36.0419
275 1 1 14.2854 8.95004 37.2827
277 1 1 16.2774 12.9995 0.180313
238 1 1 18.2746 9.14186 36.8383
279 1 1 17.66 11.7667 37.0174
242 1 1 0.430928 11.5351 1.44394
244 1 1 17.5446 14.8252 1.15468
246 1 1 5.07 11.6162 0.81533
248 1 1 1.32932 12.7861 1.01679
252 1 1 3.7192 13.1304 1.00173
250 1 1 4.32681 12.8391 0.234057
256 1 1 6.11919 13.7246 1.34777
254 1 1 7.05246 13.4581 0.0480294
258 1 1 7.14644 12.7378 1.01158
260 1 1 7.7244 13.7428 2.36699
264 1 1 9.94628 12.133 1.46331
262 1 1 11.6142 10.8843 0.663711
268 1 1 12.5424 9.97904 2.64161
266 1 1 13.8636 11.151 34.8967
270 1 1 14.3692 11.6617 0.538461
272 1 1 12.8556 12.0227 1.00048
276 1 1 16.4613 12.4429 1.39841
274 1 1 15.4926 13.6201 0.140344
280 1 1 15.6053 14.4562 0.992267
278 1 1 17.2365 12.0902 0.639213
281 1 1 17.3161 13.031 1.24942
282 1 1 2.3337 15.2907 2.81777
283 1 1 18.4649 12.5915 1.93601
284 1 1 1.47815 14.2786 1.89572
285 1 1 0.946218 12.0666 0.400875
286 1 1 1.04304 13.8108 2.97792
287 1 1 3.72607 14.1199 1.95999
288 1 1 3.06406 15.9844 2.36667
289 1 1 3.26185 14.4798 37.0208
292 1 1 4.20913 15.5325 2.49729
290 1 1 4.03074 11.7086 0.493194
291 1 1 4.20307 13.9824 37.557
293 1 1 5.27014 12.7676 36.8968
296 1 1 6.11751 14.1823 37.6392
294 1 1 5.23877 14.1415 36.867
295 1 1 5.35733 13.2895 0.210277
297 1 1 7.73356 14.1586 37.312
298 1 1 9.71118 15.6114 1.56619
299 1 1 7.22705 14.817 0.521924
300 1 1 6.35684 15.6973 0.422695
301 1 1 9.98438 12.327 37.0529
304 1 1 10.2769 16.5269 2.08367
302 1 1 10.4542 12.7886 2.16787
303 1 1 11.8569 12.3874 1.59807
305 1 1 12.22 12.747 37.5477
308 1 1 11.3663 13.2373 1.13171
306 1 1 12.5902 16.1514 0.978023
307 1 1 12.0282 13.8082 0.574611
309 1 1 13.6989 12.4594 0.200357
310 1 1 13.6139 13.6426 0.5337
311 1 1 14.9702 12.6058 0.0843904
312 1 1 15.3988 15.7302 0.590461
313 1 1 14.3288 13.072 36.7303
316 1 1 14.5954 14.6802 37.22
314 1 1 17.4269 15.294 0.165753
315 1 1 17.4505 14.1645 0.427287
317 1 1 16.4543 15.08 0.417582
320 1 1 17.2445 15.4599 3.75119
318 1 1 0.614593 16.3789 1.65283
319 1 1 18.3327 15.5768 1.52501
321 1 1 1.16411 16.1539 0.834664
323 1 1 1.91038 15.5206 1.56959
325 1 1 1.08424 14.8116 1.0552
327 1 1 4.2884 16.1317 0.920053
329 1 1 4.61649 14.8811 36.2734
331 1 1 4.72072 15.4954 0.107009
333 1 1 6.69531 13.2872 35.9229
335 1 1 7.20196 18.3941 0.195685
337 1 1 5.08491 14.4088 0.241195
339 1 1 7.42847 16.0144 0.742931
341 1 1 7.814 15.5158 37.0267
343 1 1 9.18859 14.9556 0.831507
345 1 1 12.5629 15.4288 36.918
347 1 1 11.3618 15.6627 0.629286
349 1 1 12.721 13.4369 37.0569
351 1 1 16.3955 14.9804 1.69621
353 1 1 14.4326 15.8548 0.879388
355 1 1 14.1614 15.6599 36.7663
357 1 1 16.7732 15.031 36.6674
359 1 1 0.45377 14.1356 3.7579
322 1 1 0.704326 14.3915 36.8478
324 1 1 0.121878 17.3486 1.9969
361 1 1 0.906413 17.5927 37.5214
363 1 1 2.94032 17.1456 1.94605
326 1 1 3.13385 15.9155 37.0124
328 1 1 2.59867 15.844 0.693384
365 1 1 0.799372 15.2725 37.5886
367 1 1 3.35933 17.5909 37.2544
332 1 1 4.17458 16.63 0.0130939
369 1 1 2.37051 1.04308 36.8226
330 1 1 5.3498 16.5388 37.5083
336 1 1 4.36193 18.6163 1.35002
371 1 1 3.92062 0.346646 37.191
373 1 1 5.18983 17.7262 35.8815
334 1 1 5.63835 17.1754 0.689048
375 1 1 6.8002 16.5409 1.37523
338 1 1 7.17762 16.0074 36.2098
340 1 1 6.11695 17.1444 37.283
377 1 1 8.64319 16.4466 37.0754
379 1 1 8.55464 15.698 0.216137
344 1 1 8.34804 16.7633 1.43239
381 1 1 10.2112 14.4367 0.306352
342 1 1 9.68689 15.6589 0.274966
348 1 1 11.7408 15.8032 1.59946
383 1 1 11.2361 16.6947 0.201392
385 1 1 10.5786 15.4975 37.5148
346 1 1 10.5758 15.9862 1.28476
387 1 1 12.7817 17.8212 2.56622
350 1 1 15.3015 16.5706 1.31168
352 1 1 13.8294 16.8468 1.14462
389 1 1 12.55 18.0494 0.0432032
391 1 1 13.0105 17.434 0.704078
356 1 1 14.8848 16.5483 0.0248786
393 1 1 15.7104 17.1389 0.299316
354 1 1 17.0784 15.9822 37.1382
360 1 1 18.3348 15.189 3.78591
395 1 1 16.1474 18.1221 0.249315
397 1 1 17.6092 15.9638 0.930523
358 1 1 0.366289 15.4948 0.780869
399 1 1 18.4254 15.7707 37.5456
362 1 1 1.65424 0.33511 37.2442
364 1 1 18.6879 17.4492 0.229977
366 1 1 2.51762 18.7256 0.134365
368 1 1 2.02181 18.5314 1.65809
372 1 1 3.42194 0.880155 36.3884
370 1 1 4.89706 18.7355 36.9045
376 1 1 6.09383 18.4323 1.12902
374 1 1 6.0668 18.0131 35.359
378 1 1 8.70095 16.1984 35.3746
380 1 1 7.21582 0.288728 2.99425
384 1 1 10.0232 16.2293 36.6892
382 1 1 11.7717 17.7246 36.6565
388 1 1 11.4442 0.114877 0.686827
386 1 1 11.5003 16.897 1.22478
390 1 1 14.5 0.374286 36.5642
392 1 1 12.0383 0.62718 2.00432
396 1 1 14.677 0.0830031 0.073758
394 1 1 16.705 0.342672 0.871814
400 1 1 17.681 18.2773 35.4684
398 1 1 17.966 0.368821 34.9378
401 1 1 1.63446 0.228344 0.842239
402 1 1 18.6044 0.565147 1.74697
403 1 1 0.274658 0.918292 4.51554
404 1 1 18.6915 18.4839 0.976076
405 1 1 2.27968 0.933256 1.43342
406 1 1 2.52729 3.04966 0.0569101
407 1 1 3.93082 18.198 4.68919
408 1 1 2.31078 0.927655 4.79637
409 1 1 3.56791 0.284739 2.57946
412 1 1 3.55894 0.288909 0.528574
410 1 1 4.71977 1.07306 2.84733
411 1 1 6.42079 17.1685 3.06825
413 1 1 6.18429 18.3676 3.21588
416 1 1 6.32246 1.10936 2.75466
414 1 1 6.7999 2.09361 0.779394
415 1 1 8.12007 0.571617 5.25481
417 1 1 7.57094 0.81297 1.69546
418 1 1 9.15094 0.358284 37.0432
419 1 1 9.35056 18.249 1.27223
420 1 1 8.99335 1.77587 3.10634
421 1 1 10.3963 0.837115 0.752188
424 1 1 8.72448 1.41054 36.994
422 1 1 10.3908 18.7916 1.42439
423 1 1 9.51551 0.186057 2.01386
425 1 1 11.4355 18.0035 3.06618
428 1 1 10.3794 18.7529 2.8907
426 1 1 13.5514 1.31037 0.977361
427 1 1 13.2781 2.1632 3.10321
429 1 1 13.4385 18.3306 1.85262
430 1 1 15.0144 0.957055 1.3979
431 1 1 14.1132 0.0763147 3.60646
432 1 1 13.8106 17.5942 2.51183
433 1 1 15.1253 0.187105 2.27217
436 1 1 16.4009 1.24199 3.07332
434 1 1 17.0722 17.9668 0.750223
435 1 1 17.3454 18.032 2.46066
437 1 1 16.8433 17.402 37.4856
440 1 1 17.8605 2.30446 2.66706
438 1 1 0.442307 17.5308 1.04638
439 1 1 16.1023 0.669886 2.02447
441 1 1 18.4893 2.73352 3.58263
442 1 1 0.331798 3.74217 3.59205
443 1 1 1.38693 0.735196 3.76767
444 1 1 17.6488 4.37838 2.61623
445 1 1 2.4595 3.44005 1.96011
446 1 1 1.63479 3.89691 1.32464
447 1 1 2.66299 2.10706 1.32777
448 1 1 1.74802 1.98224 2.21358
449 1 1 2.91096 1.12075 2.15624
452 1 1 3.91332 1.66262 1.94739
450 1 1 3.70484 4.68435 3.064
451 1 1 3.6719 18.6095 3.72346
453 1 1 5.54776 2.13458 1.9894
456 1 1 3.65261 1.18337 2.86192
454 1 1 8.03408 3.90959 0.679557
455 1 1 5.53964 2.95261 3.14957
457 1 1 7.15602 3.05787 0.686558
458 1 1 10.0422 1.61064 2.67901
459 1 1 8.29185 2.29043 4.9575
460 1 1 7.98117 4.71004 2.59286
461 1 1 10.0228 1.68606 1.68846
464 1 1 11.0847 3.88109 37.4934
462 1 1 11.2454 2.36186 3.01867
463 1 1 10.5041 0.828786 2.3894
465 1 1 11.5659 1.78966 2.09547
468 1 1 11.0993 1.34013 3.45547
466 1 1 12.6432 0.808519 4.22229
467 1 1 13.1829 0.197585 3.0937
469 1 1 11.2202 1.2784 1.37961
470 1 1 12.5979 1.61791 1.51606
471 1 1 14.5545 1.03247 3.05385
472 1 1 14.2296 2.84282 1.74478
473 1 1 15.4468 3.00423 1.41027
476 1 1 14.6691 1.95213 2.72471
474 1 1 17.7243 0.891389 1.28524
475 1 1 16.6352 1.70514 4.1807
477 1 1 17.5423 1.30408 2.85185
480 1 1 16.9121 2.60347 3.34893
478 1 1 17.6359 1.95735 3.69931
479 1 1 17.3567 0.858084 3.68828
481 1 1 0.216328 3.12106 0.93604
483 1 1 17.7591 3.42091 3.06292
485 1 1 3.21514 6.36627 3.03594
487 1 1 2.7695 2.32223 2.25543
489 1 1 2.89576 4.8491 2.02201
491 1 1 4.50389 3.82268 2.36048
493 1 1 6.23427 2.861 1.03529
495 1 1 7.97034 2.31563 1.64771
497 1 1 7.28341 3.2325 2.83519
499 1 1 10.0103 3.0125 1.03559
501 1 1 9.40249 2.77435 37.5454
503 1 1 10.2828 4.69163 3.29732
505 1 1 12.9874 3.05242 1.75026
507 1 1 13.3256 1.30562 2.32113
509 1 1 13.7166 3.96084 1.61299
511 1 1 14.3771 2.65162 3.49538
513 1 1 16.475 2.5611 0.918176
515 1 1 15.3357 3.58551 3.52691
517 1 1 15.9961 2.70046 2.50873
519 1 1 16.6858 4.57832 2.60069
482 1 1 1.28996 4.95248 3.65213
484 1 1 0.15019 4.66133 3.48744
521 1 1 0.262003 5.55815 3.48713
523 1 1 0.268462 6.56458 2.24523
486 1 1 2.84985 6.80971 4.00304
488 1 1 1.38233 3.89472 2.93714
525 1 1 0.729419 4.55901 2.33842
527 1 1 2.70814 5.19672 0.476936
492 1 1 4.84902 5.09727 3.19143
529 1 1 4.47628 6.43746 0.389549
490 1 1 5.72979 4.63341 2.20672
496 1 1 4.65557 2.92308 2.11124
531 1 1 5.35706 5.74664 1.96637
533 1 1 7.84092 5.44523 0.991276
494 1 1 8.62227 4.86664 1.56849
535 1 1 8.79999 5.00732 3.71917
498 1 1 8.45837 7.61993 1.70283
500 1 1 8.88904 2.77733 2.25077
537 1 1 7.58899 4.20649 3.32672
539 1 1 9.59025 8.92668 4.24616
504 1 1 8.48027 1.56001 2.19231
541 1 1 11.3854 5.622 0.728173
502 1 1 10.4419 4.63112 1.93658
508 1 1 14.8777 3.02115 2.64229
543 1 1 11.1556 5.04332 2.74977
545 1 1 8.74054 5.389 2.61154
506 1 1 12.429 4.20428 1.14788
547 1 1 11.0478 3.98532 2.55069
510 1 1 15.3418 4.36118 1.12085
512 1 1 12.8178 6.59502 3.36069
549 1 1 13.8801 7.49008 1.88377
551 1 1 13.5419 4.56667 3.35938
516 1 1 13.9724 3.6692 3.74583
553 1 1 13.7994 5.10581 1.99797
514 1 1 18.1047 3.41682 1.97407
520 1 1 15.4485 5.10026 3.65566
555 1 1 15.3166 4.92537 2.56982
557 1 1 16.0971 4.9669 1.80354
518 1 1 18.7376 4.80616 1.55414
559 1 1 18.3144 5.86444 2.28142
522 1 1 17.9148 6.55069 1.53135
524 1 1 0.448349 8.52854 1.45909
526 1 1 2.90095 6.33721 1.89638
528 1 1 2.32253 8.32042 3.56552
532 1 1 2.38181 7.59335 2.35313
530 1 1 5.58584 6.95481 3.53832
536 1 1 6.84231 6.14459 3.47954
534 1 1 7.33669 6.75438 2.7596
538 1 1 10.1407 6.26338 1.45022
540 1 1 9.86503 6.66354 4.04
544 1 1 10.3143 7.01053 0.544407
542 1 1 12.3863 5.6948 1.31959
548 1 1 12.1057 7.43769 1.89773
546 1 1 13.2973 6.72229 1.33569
550 1 1 15.8079 5.63006 0.275143
552 1 1 12.8546 7.01485 2.38596
556 1 1 13.8911 6.75734 3.25371
554 1 1 15.2693 6.49291 1.22799
560 1 1 15.9544 6.44257 3.45966
558 1 1 17.0371 5.81138 2.38244
561 1 1 1.1831 7.73213 2.03544
562 1 1 1.41891 8.14369 0.190148
563 1 1 18.3074 7.54729 2.7259
564 1 1 18.441 8.67253 3.07465
565 1 1 2.29152 7.71236 0.841052
566 1 1 1.6941 8.44055 2.68531
567 1 1 2.38816 9.2624 2.89892
568 1 1 0.304513 9.73704 2.54812
569 1 1 3.08447 7.99614 0.257933
572 1 1 5.51295 8.90529 3.3324
570 1 1 6.013 7.84598 3.14403
571 1 1 4.04069 7.27576 4.32689
573 1 1 3.66328 6.71468 1.4247
576 1 1 7.54721 9.82961 4.87413
574 1 1 6.66452 9.86713 1.97828
575 1 1 8.18895 6.08277 2.98364
577 1 1 6.71881 8.70311 3.33841
578 1 1 10.7427 10.0026 1.42718
579 1 1 7.80399 8.90455 3.65087
580 1 1 8.86189 10.8088 0.762049
581 1 1 10.9789 8.74765 3.08199
584 1 1 9.3523 9.12766 3.27173
582 1 1 11.2957 8.77114 1.72434
583 1 1 10.9298 7.89448 1.42245
585 1 1 11.1292 8.38537 0.163147
588 1 1 11.8274 5.98135 3.87243
586 1 1 13.0168 9.36909 1.34566
587 1 1 11.0801 7.65654 2.79292
589 1 1 14.4678 6.94662 0.933249
590 1 1 14.8614 10.2217 1.36739
591 1 1 14.3058 6.51426 1.94082
592 1 1 13.9632 9.27337 0.704903
593 1 1 14.8936 6.3853 0.263488
596 1 1 14.6344 9.72469 2.4722
594 1 1 15.8603 7.17406 1.58146
595 1 1 15.3386 9.01546 2.75743
597 1 1 17.1944 8.97382 3.49409
600 1 1 17.5436 11.1112 0.487094
598 1 1 17.9055 7.53116 0.993949
599 1 1 16.9627 6.84298 3.43678
601 1 1 1.17636 9.44216 1.11169
603 1 1 0.0514492 10.7581 2.66442
605 1 1 2.19747 9.8149 1.84254
607 1 1 3.19072 7.57626 1.57452
609 1 1 5.18983 9.16048 1.21044
611 1 1 4.83435 9.70973 3.67148
613 1 1 5.29853 8.20929 2.06504
615 1 1 6.60681 10.4137 4.45122
617 1 1 7.69647 7.75425 0.176877
619 1 1 8.91496 7.89649 2.79343
621 1 1 9.47524 10.9797 2.47969
623 1 1 10.0866 8.75037 2.21385
625 1 1 11.6271 9.19493 0.851617
627 1 1 10.7228 11.1121 2.53229
629 1 1 13.8189 10.8791 3.89171
631 1 1 15.6362 7.95415 3.36189
633 1 1 13.8663 8.78644 1.98952
635 1 1 16.349 8.22355 4.51657
637 1 1 18.4863 9.05763 2.00102
639 1 1 16.2331 11.307 2.93218
602 1 1 17.587 12.4861 4.00811
604 1 1 1.0718 12.0373 2.77795
641 1 1 17.2052 13.5257 2.1382
643 1 1 2.02771 12.4177 3.10887
606 1 1 3.04229 9.25613 1.66685
608 1 1 0.858417 11.9639 3.98952
645 1 1 2.68814 10.5836 1.69239
647 1 1 4.16908 10.9225 2.1773
612 1 1 4.44869 9.05029 2.79615
649 1 1 3.94364 9.8303 1.67791
610 1 1 5.26257 10.5558 2.04839
616 1 1 5.98356 8.84611 2.33745
651 1 1 6.83768 12.4484 3.6982
653 1 1 5.68152 10.7224 3.71481
614 1 1 7.13022 10.4342 1.22581
655 1 1 6.73747 13.6553 3.01767
618 1 1 7.57068 10.8276 2.06305
620 1 1 7.18594 11.4497 3.96382
657 1 1 7.90832 11.1547 36.4309
659 1 1 8.21583 10.9427 3.13839
624 1 1 8.71317 9.79108 2.878
661 1 1 9.72606 11.0612 1.36247
622 1 1 9.93279 11.9338 2.68807
628 1 1 10.4824 9.44603 4.16458
663 1 1 8.88449 11.7713 3.12922
665 1 1 13.574 9.62658 2.65736
626 1 1 14.0031 10.1616 4.89599
667 1 1 12.7317 10.5436 4.19425
630 1 1 14.4567 12.2459 1.47485
632 1 1 14.3656 12.316 3.7918
669 1 1 13.7093 11.7345 3.04712
671 1 1 13.6347 13.5499 3.24981
636 1 1 15.6293 9.98112 2.20279
673 1 1 14.8003 14.246 3.03295
634 1 1 15.2047 7.76428 2.35868
640 1 1 16.1217 9.39286 3.27349
675 1 1 14.5771 13.2199 2.97458
677 1 1 16.2257 11.2267 0.11109
638 1 1 16.0252 12.1104 2.17661
679 1 1 16.5956 14.1114 0.889841
642 1 1 18.4928 10.2728 1.46391
644 1 1 16.6171 12.3021 3.58566
646 1 1 2.65256 12.5558 0.634918
648 1 1 2.5075 15.3468 3.90813
652 1 1 3.08348 12.6706 1.68196
650 1 1 5.18321 13.0152 1.19428
656 1 1 4.80964 12.6386 2.66013
654 1 1 4.89088 13.6172 3.64695
658 1 1 8.94206 11.864 1.08636
660 1 1 5.82216 13.9509 2.4866
664 1 1 11.7736 12.0757 4.16979
662 1 1 10.7651 11.9657 3.23366
668 1 1 10.7619 9.84062 3.24148
666 1 1 12.8477 14.0054 1.59458
670 1 1 13.9798 13.118 1.54034
672 1 1 13.2705 12.5909 2.44326
676 1 1 11.8465 11.9354 2.76706
674 1 1 15.1515 12.8177 2.02787
680 1 1 17.0652 13.3305 3.48777
678 1 1 18.2979 14.9918 2.42296
681 1 1 1.51723 14.7432 3.32825
682 1 1 0.33461 16.3663 2.62854
683 1 1 17.9577 12.808 2.82001
684 1 1 18.0964 14.3109 3.22036
685 1 1 18.5784 13.6374 2.60197
686 1 1 2.42838 14.5749 1.52051
687 1 1 2.16029 13.2265 2.08348
688 1 1 3.05976 14.5887 2.56739
689 1 1 3.70778 14.1645 3.47169
692 1 1 4.43941 15.079 3.61124
690 1 1 4.93821 17.5105 2.25696
691 1 1 4.92557 13.7652 1.96277
693 1 1 4.82473 14.763 2.67079
696 1 1 6.26669 15.6968 1.8056
694 1 1 6.61557 14.7519 1.568
695 1 1 5.59392 14.4685 3.50483
697 1 1 7.2054 12.2446 2.10362
698 1 1 9.38973 17.1609 1.62303
699 1 1 9.29603 12.9659 2.87393
700 1 1 7.78814 14.8068 2.06879
701 1 1 8.14473 12.6672 2.55683
704 1 1 9.32256 15.2792 2.97226
702 1 1 11.0594 13.516 0.100002
703 1 1 9.35466 14.4862 3.61162
705 1 1 11.2665 13.3637 2.34221
708 1 1 11.4934 14.522 2.09332
706 1 1 13.8695 14.2315 2.35213
707 1 1 11.7861 10.4623 3.39159
709 1 1 14.7721 13.588 0.960613
710 1 1 14.3242 15.0647 3.66435
711 1 1 13.2369 14.7815 3.02302
712 1 1 12.426 14.1577 2.75227
713 1 1 16.0639 13.6307 1.90281
716 1 1 16.1429 14.2455 3.45549
714 1 1 16.2359 16.2621 0.0235332
715 1 1 14.6926 13.6762 4.07443
717 1 1 17.4918 15.5409 2.12658
720 1 1 16.9408 14.6129 2.43876
718 1 1 18.3374 13.3279 3.56991
719 1 1 1.19782 13.5954 4.77037
721 1 1 0.556012 15.3657 1.78262
723 1 1 18.2115 14.4799 5.68361
725 1 1 3.49937 15.566 1.24752
727 1 1 1.8859 17.8033 2.77039
729 1 1 3.51916 15.7273 3.76223
731 1 1 4.62873 17.3542 0.614009
733 1 1 5.03314 14.9659 1.66714
735 1 1 7.36058 17.0569 0.222201
737 1 1 8.81472 16.0085 2.35395
739 1 1 9.84393 16.7347 4.14973
741 1 1 8.57289 16.9929 2.49913
743 1 1 8.97675 14.403 1.77052
745 1 1 12.3142 16.7906 2.37317
747 1 1 12.1105 14.826 1.22373
749 1 1 15.3535 15.258 1.98029
751 1 1 16.7824 16.1013 1.80302
753 1 1 16.7993 16.7798 0.721067
755 1 1 15.9147 15.7811 2.77758
757 1 1 17.397 16.9529 2.68352
759 1 1 16.9474 16.123 3.02474
722 1 1 1.53517 16.2528 2.31198
724 1 1 0.0106302 17.2426 3.28698
761 1 1 1.04369 17.1392 2.34345
763 1 1 2.29348 0.0255794 2.83233
726 1 1 1.87856 17.6218 3.89134
728 1 1 1.07288 18.5773 4.46384
765 1 1 5.73766 0.8963 1.77499
767 1 1 2.43228 18.4309 3.80864
732 1 1 4.58721 0.248627 2.28444
769 1 1 1.62543 17.7354 1.33483
730 1 1 3.45852 17.1148 0.909805
736 1 1 7.52835 14.9083 3.91555
771 1 1 5.4422 18.467 2.43605
773 1 1 6.33412 17.6328 1.8729
734 1 1 8.5022 17.7793 1.91456
775 1 1 7.28869 17.6635 1.62466
738 1 1 8.66475 15.596 1.38571
740 1 1 7.9883 16.4571 3.72893
777 1 1 7.62597 16.0381 1.92484
779 1 1 7.28981 16.9393 2.39294
744 1 1 9.46921 17.231 2.67599
781 1 1 9.27494 17.478 0.60767
742 1 1 9.82902 13.6546 2.12582
748 1 1 11.5767 16.0273 2.7811
783 1 1 10.0914 18.1135 2.17662
785 1 1 11.6406 17.6656 0.265926
746 1 1 11.3418 17.1973 2.37044
787 1 1 13.8619 15.9868 3.83507
750 1 1 14.567 17.1114 1.95858
752 1 1 14.333 16.1343 1.93362
789 1 1 13.2146 16.8789 1.95938
791 1 1 15.2719 17.8456 2.32133
756 1 1 15.0202 16.6416 2.73931
793 1 1 15.6272 18.315 1.34159
754 1 1 18.1036 16.7261 37.1571
760 1 1 18.2406 18.4325 2.32962
795 1 1 14.5118 17.4759 0.77886
797 1 1 17.9779 17.8088 1.10702
758 1 1 18.4963 16.6686 0.910045
799 1 1 16.6492 17.5913 1.84443
762 1 1 1.15157 18.8023 3.004
764 1 1 0.759444 18.3724 1.6607
766 1 1 2.93744 17.1843 3.47681
768 1 1 2.40406 17.5712 0.586161
772 1 1 5.16915 18.0711 4.40068
770 1 1 6.65778 0.108272 2.00433
776 1 1 5.29161 15.724 2.15741
774 1 1 7.789 18.5172 1.94457
778 1 1 8.65161 18.1462 2.95914
780 1 1 8.31637 0.994637 3.23879
784 1 1 10.4636 17.243 0.859543
782 1 1 9.61786 18.495 0.313108
788 1 1 11.8363 17.0412 3.22322
786 1 1 11.6689 18.098 1.52726
790 1 1 13.6305 18.3508 0.684342
792 1 1 13.2451 16.6351 3.04524
796 1 1 14.5297 18.0837 1.63099
794 1 1 14.442 17.8239 37.2129
800 1 1 16.5075 17.7552 3.63183
798 1 1 0.290051 18.1312 2.74072
801 1 1 0.223155 1.88512 3.21663
802 1 1 2.91679 0.600649 3.85157
805 1 1 1.38474 0.638996 5.08902
806 1 1 2.37694 1.87214 5.03893
809 1 1 5.07766 0.393412 5.29078
810 1 1 4.59681 18.4954 3.18112
813 1 1 6.4409 18.5457 4.3452
814 1 1 6.05985 2.28155 3.97469
817 1 1 6.77359 18.1284 6.34211
818 1 1 9.03044 0.231095 2.89478
821 1 1 9.8223 0.624873 3.77356
822 1 1 10.7836 18.0606 4.16993
825 1 1 12.44 18.295 3.37598
826 1 1 11.7837 1.43413 4.38609
829 1 1 13.477 17.9733 3.60563
830 1 1 14.6165 0.72318 4.23744
833 1 1 17.2199 18.7253 3.34106
834 1 1 16.9212 0.600034 5.08237
837 1 1 17.9948 18.7787 4.48484
838 1 1 18.3346 2.47526 1.3102
841 1 1 0.517009 1.98952 4.61595
842 1 1 18.2528 3.60643 4.30973
845 1 1 3.4021 1.23877 4.63706
846 1 1 2.2572 4.1218 3.27271
849 1 1 2.94473 18.7444 4.80724
850 1 1 4.72437 0.118944 4.35049
853 1 1 5.36869 1.94256 2.98548
854 1 1 7.20689 1.83424 2.39343
857 1 1 6.89412 2.23041 3.40533
858 1 1 9.66454 3.51178 4.44115
861 1 1 9.70636 1.9511 4.06392
862 1 1 9.16487 4.09757 3.42574
865 1 1 10.9899 2.81904 3.95699
866 1 1 12.3717 2.24138 3.65448
869 1 1 13.7726 1.68074 4.59839
870 1 1 14.2168 2.61326 4.46171
873 1 1 15.8591 0.973879 4.47507
874 1 1 15.3178 1.89988 1.6886
877 1 1 18.4141 1.05149 6.44378
878 1 1 16.6985 4.4545 5.11637
881 1 1 18.1922 5.0477 4.14894
885 1 1 2.26494 3.04616 3.04697
889 1 1 3.13868 3.51336 3.22805
893 1 1 4.20603 2.21531 2.94832
897 1 1 8.59189 2.95672 3.31174
901 1 1 11.1767 3.85458 5.33913
905 1 1 9.71754 2.55591 2.94145
909 1 1 13.8222 3.1817 2.84115
913 1 1 15.2995 2.23543 3.4737
917 1 1 16.4926 3.48238 3.87445
882 1 1 0.0348797 5.18185 4.82307
921 1 1 17.8002 5.39812 3.17581
886 1 1 4.14405 5.82927 3.45549
925 1 1 1.93663 4.42447 2.19456
929 1 1 4.35505 5.78244 5.62371
890 1 1 5.57121 6.371 5.77987
933 1 1 4.21019 4.05329 3.66381
894 1 1 7.36855 3.68905 1.56398
898 1 1 10.9515 4.54198 4.2494
937 1 1 8.63533 3.72965 1.60735
941 1 1 8.1121 3.58393 2.41092
902 1 1 9.86517 4.44666 4.24627
945 1 1 10.4997 5.66521 4.28666
906 1 1 13.1972 4.0385 4.53094
910 1 1 15.9789 2.23739 5.55625
949 1 1 14.5419 4.40327 4.35307
953 1 1 12.6981 3.49156 2.99607
914 1 1 14.7788 5.88969 3.81495
957 1 1 14.9491 6.97047 3.9409
918 1 1 16.4179 5.28044 4.22846
922 1 1 2.01035 6.61458 3.34245
926 1 1 4.26029 8.82703 3.78628
930 1 1 4.60335 6.41924 2.73102
934 1 1 8.94958 6.49608 2.29079
938 1 1 10.0926 7.33702 1.85872
942 1 1 11.2952 6.74664 1.37478
946 1 1 12.5818 4.40403 2.20791
950 1 1 12.1858 5.72505 2.70563
954 1 1 13.7792 6.00942 3.99508
958 1 1 16.1202 6.73085 2.44873
961 1 1 0.701187 7.61293 3.01681
962 1 1 1.34335 9.70965 2.43412
965 1 1 2.06334 5.48809 4.47062
966 1 1 3.06859 8.00151 4.3385
969 1 1 3.59422 7.1153 2.62932
970 1 1 3.21957 7.70499 3.36122
973 1 1 7.80941 7.07746 4.14762
974 1 1 5.32212 7.5314 5.69276
977 1 1 8.11898 5.65926 5.69101
978 1 1 7.95051 10.1294 3.8347
981 1 1 10.6593 6.68407 3.20945
982 1 1 12.1219 9.09563 3.72549
985 1 1 11.3661 8.09133 5.72161
986 1 1 11.591 7.54428 4.63137
989 1 1 13.2598 7.94908 2.62236
990 1 1 12.8343 9.51265 4.52011
993 1 1 13.9192 8.70216 3.09335
994 1 1 14.1703 8.53703 5.91441
997 1 1 16.2942 8.44579 2.75154
998 1 1 0.0300945 9.4594 3.65463
1001 1 1 18.0478 10.0303 3.19577
1005 1 1 3.0231 8.39738 2.41413
1009 1 1 5.48122 9.21269 4.40414
1013 1 1 6.26952 7.64746 4.28881
1017 1 1 8.91621 9.86066 4.479
1021 1 1 9.08616 10.517 3.65104
1025 1 1 12.4672 10.2815 5.32211
1029 1 1 12.8187 8.35923 1.59078
1033 1 1 13.7352 9.27305 4.03737
1037 1 1 16.7231 10.0506 2.56941
1002 1 1 18.611 11.7498 4.15111
1041 1 1 18.1741 12.5526 5.28505
1006 1 1 3.09449 9.93905 2.43018
1045 1 1 2.32009 11.6167 2.10028
1049 1 1 3.85292 9.86506 3.13062
1010 1 1 5.30662 9.63719 2.50268
1053 1 1 5.36871 11.4124 5.23638
1014 1 1 6.64509 11.1431 3.03277
1018 1 1 8.08482 10.9098 4.50351
1057 1 1 9.67069 11.8274 6.69707
1061 1 1 8.45455 11.3015 2.19312
1022 1 1 8.22938 11.8751 3.94145
1065 1 1 9.87232 10.3314 4.28456
1026 1 1 12.3068 9.09716 2.75346
1030 1 1 14.3223 9.90656 3.47631
1069 1 1 12.6027 11.2883 3.43621
1073 1 1 15.8824 9.51422 4.33155
1034 1 1 14.4495 10.646 2.22471
1077 1 1 16.7778 12.5502 2.51589
1038 1 1 16.4581 11.3664 1.65483
1042 1 1 0.430385 12.8493 3.10842
1046 1 1 3.8709 13.4224 2.72125