ITEM: TIMESTEP
1600
ITEM: NUMBER OF ATOMS
8000
ITEM: BOX BOUNDS pp pp pp
0.0000000000000000e+00 1.8820720577620570e+01
0.0000000000000000e+00 1.8820720577620570e+01
0.0000000000000000e+00 3.7641441155241139e+01
ITEM: ATOMS id mass type x y z
35 1 1 0.541376 1.80172 0.694287
366 1 1 1.60957 18.2242 0.12334
7246 1 1 2.67501 18.654 37.0546
7651 1 1 3.78395 0.345186 0.110715
6 1 1 5.45034 4.26784 37.0495
771 1 1 5.41262 18.4921 2.50671
770 1 1 7.2347 18.7243 1.00606
11 1 1 9.32492 0.0570341 1.29262
7611 1 1 7.03234 0.766465 0.294494
57 1 1 9.04076 0.540367 0.3188
7661 1 1 9.72774 1.18094 37.568
67 1 1 9.91186 17.8828 0.70451
7628 1 1 10.1349 1.88351 0.882419
7665 1 1 11.9683 2.0728 37.31
7627 1 1 10.8938 0.744459 0.817728
31 1 1 14.2228 18.1243 37.4167
7986 1 1 14.7447 1.55145 0.827288
71 1 1 13.5747 1.41564 2.24813
874 1 1 14.334 0.419768 0.762909
39 1 1 17.3979 2.47084 0.728097
439 1 1 15.5332 1.43669 1.83201
7996 1 1 16.3346 2.02135 0.165302
40 1 1 0.070219 17.4774 1.13325
477 1 1 17.9415 0.118188 0.0331458
760 1 1 17.2634 2.19653 37.2896
8000 1 1 18.1884 0.285395 36.3053
8 1 1 2.78222 0.64123 0.460708
7603 1 1 18.6681 3.85735 37.6242
47 1 1 1.15806 1.9257 1.64601
56 1 1 4.44487 0.284703 35.7824
83 1 1 5.10322 2.03042 37.5096
456 1 1 6.40021 4.07144 0.23164
496 1 1 7.15838 3.81462 36.3691
55 1 1 8.73094 2.90046 36.8511
765 1 1 5.94455 2.43054 0.664582
20 1 1 9.02158 1.92061 1.05651
417 1 1 7.21791 2.24381 1.38512
26 1 1 11.3987 1.11722 37.1994
424 1 1 8.25801 1.44773 0.0259046
946 1 1 12.5792 2.98768 36.83
66 1 1 12.4969 3.58774 0.67971
7591 1 1 12.8999 2.63712 0.292128
79 1 1 13.6741 1.9442 0.385964
117 1 1 16.0869 3.31425 0.671449
77 1 1 18.3715 1.94417 0.6233
159 1 1 0.678794 5.17198 0.337572
42 1 1 2.60495 3.93237 37.5023
50 1 1 2.92823 2.0374 36.9014
89 1 1 5.21734 3.49619 2.5345
49 1 1 4.17898 4.75411 1.16832
14 1 1 7.82455 3.18402 1.58798
93 1 1 7.68137 3.35465 0.427937
414 1 1 7.86397 3.07311 36.2847
494 1 1 8.28519 4.18818 1.2007
937 1 1 8.93088 3.05366 0.984086
100 1 1 12.845 5.26412 0.199991
501 1 1 11.5905 2.39104 36.1507
111 1 1 13.7618 2.90387 36.6665
108 1 1 10.8566 5.03288 1.56657
506 1 1 13.0441 3.7482 37.228
953 1 1 12.5777 3.63247 3.39807
7663 1 1 11.9749 4.1739 36.6312
472 1 1 16.3259 2.55283 36.8766
509 1 1 13.9594 4.34129 2.12473
34 1 1 15.2084 4.30029 1.06038
75 1 1 16.7278 4.92333 0.869533
116 1 1 13.7636 3.48247 0.353645
80 1 1 16.5039 4.55411 37.4659
115 1 1 17.33 3.13922 2.17822
510 1 1 17.4221 5.28647 1.77536
78 1 1 17.582 4.31062 37.6288
81 1 1 0.76112 6.56243 0.427611
127 1 1 3.1474 3.80922 0.772961
925 1 1 2.75977 7.23546 0.281438
7729 1 1 1.90052 5.15916 1.90298
99 1 1 5.96783 5.73296 3.1713
7700 1 1 5.02695 5.00449 1.78687
53 1 1 5.96571 5.62154 1.95779
533 1 1 5.47343 4.61494 2.65798
137 1 1 7.72259 4.40312 0.281364
102 1 1 9.26413 4.39966 1.799
143 1 1 9.39486 4.62681 0.355977
541 1 1 11.8135 4.96104 37.2166
149 1 1 13.6217 4.64298 0.865438
7754 1 1 13.9589 6.40621 1.64359
557 1 1 17.3301 6.52263 2.13792
7720 1 1 0.446701 6.06841 36.5101
7721 1 1 18.6293 6.73133 1.53846
161 1 1 3.73007 5.48045 36.6533
7795 1 1 3.01296 8.31396 0.411747
132 1 1 4.12154 7.9259 37.422
532 1 1 4.13649 7.11428 1.84683
7733 1 1 3.34251 6.11599 0.802961
94 1 1 5.15837 6.5973 1.04781
529 1 1 4.08233 7.12424 0.370815
7735 1 1 5.0431 6.3058 2.23566
95 1 1 7.20429 6.64315 36.4499
134 1 1 9.16987 5.46942 1.38852
7775 1 1 7.80499 5.44253 0.192557
139 1 1 9.38571 6.01076 2.40207
544 1 1 11.76 5.11639 3.78087
183 1 1 14.2513 6.92831 0.140596
538 1 1 13.0203 5.90204 1.0557
942 1 1 12.0798 7.54558 0.684041
7712 1 1 10.0933 5.8396 1.64795
113 1 1 15.6422 5.08226 0.582422
150 1 1 14.6304 5.67112 2.53023
7751 1 1 12.5803 6.83604 1.41339
550 1 1 17.4156 7.76473 2.35517
554 1 1 15.2756 4.95917 1.94709
84 1 1 18.0095 9.5426 37.5344
7757 1 1 18.5043 8.33641 0.559075
163 1 1 1.66878 8.89289 1.29143
129 1 1 4.32614 8.57799 36.2117
607 1 1 5.55447 8.47156 1.42248
7727 1 1 5.34028 6.61058 0.000358539
176 1 1 5.52949 7.41974 1.4914
209 1 1 4.21973 8.42934 1.85981
7734 1 1 7.25421 8.99679 0.308221
7736 1 1 6.19928 7.00125 0.670243
179 1 1 7.5492 6.8451 1.47432
217 1 1 8.44128 8.04247 1.5315
616 1 1 9.52456 7.50879 0.0174822
184 1 1 11.4604 8.48821 35.8363
498 1 1 9.68644 6.90603 1.11452
182 1 1 10.6567 8.1334 36.6063
548 1 1 11.9741 6.60962 37.2998
625 1 1 12.9523 6.92122 0.394812
147 1 1 13.6912 5.67251 3.39803
154 1 1 15.7723 8.14397 37.6264
188 1 1 13.0632 8.7337 1.89931
196 1 1 15.4063 8.10059 1.06352
235 1 1 15.9177 10.8062 0.517123
594 1 1 17.4045 8.50716 0.678342
153 1 1 16.9393 6.58688 0.120542
598 1 1 1.04337 8.36622 0.511596
204 1 1 2.71763 9.34916 0.701015
524 1 1 2.9715 9.50825 37.2493
562 1 1 18.1356 6.6711 36.6583
7802 1 1 3.1352 7.95881 36.0793
207 1 1 2.25271 10.2973 0.570935
566 1 1 4.13267 9.63842 0.158443
649 1 1 5.23957 9.18065 2.41794
7850 1 1 6.28811 7.98548 2.24027
613 1 1 5.8744 9.30851 0.537832
7822 1 1 7.57756 10.1219 0.342088
7776 1 1 8.22175 8.98189 37.4531
218 1 1 10.1103 8.89973 1.2528
7817 1 1 7.94357 7.97727 0.302929
227 1 1 10.9929 9.24433 0.506792
583 1 1 10.7806 7.38327 37.5778
585 1 1 9.98637 9.83119 1.72856
263 1 1 14.4752 8.05783 0.52669
187 1 1 14.1787 8.37567 1.43007
190 1 1 15.5717 9.44761 1.23475
7838 1 1 17.5022 10.5389 2.2223
164 1 1 2.15135 10.045 1.517
194 1 1 18.7098 8.82507 37.2746
7841 1 1 1.97794 11.5826 2.28068
7804 1 1 1.60857 11.8141 1.17843
245 1 1 4.41443 11.823 36.7628
962 1 1 3.18743 11.5753 0.0601311
7808 1 1 3.16329 10.4437 1.42078
7879 1 1 2.07882 11.6416 37.5505
206 1 1 4.09006 10.9636 37.3858
645 1 1 3.58981 11.338 1.05306
7852 1 1 1.75021 9.04902 35.7639
211 1 1 7.15247 11.1098 37.487
7811 1 1 6.1159 11.803 1.1737
222 1 1 5.47218 10.1435 36.3722
7853 1 1 6.46414 10.0382 37.4785
7827 1 1 9.43404 10.5224 0.820184
578 1 1 10.8403 9.72075 2.15954
7788 1 1 8.38227 9.3991 0.968817
7866 1 1 14.5568 10.1239 1.25137
7868 1 1 13.4154 12.8561 0.584869
229 1 1 12.9543 11.9791 37.5842
592 1 1 15.1221 10.9882 1.31298
7831 1 1 14.019 11.9388 0.59136
236 1 1 15.9653 10.5923 36.4566
595 1 1 13.925 10.9688 1.3983
677 1 1 16.6489 11.2805 1.49
600 1 1 15.6359 11.4507 2.24863
7880 1 1 0.319737 9.89293 0.225585
242 1 1 0.761879 12.578 1.9641
7846 1 1 2.23484 12.3918 35.113
252 1 1 5.33643 12.3201 1.78639
652 1 1 3.8984 12.7181 0.488832
246 1 1 6.43538 11.6429 3.64785
250 1 1 5.44214 11.2072 36.9299
333 1 1 6.72351 12.9425 1.22802
7856 1 1 4.64462 11.918 0.602975
261 1 1 8.74102 11.685 0.706022
7541 1 1 6.78832 11.8784 0.405655
7855 1 1 8.47815 10.91 37.4906
614 1 1 9.95033 11.9414 1.17181
658 1 1 9.01886 13.472 1.51256
7468 1 1 9.69562 14.0414 0.477015
225 1 1 8.86889 12.3397 1.59623
228 1 1 10.3981 12.1361 36.9379
7903 1 1 11.5062 13.2191 1.30673
308 1 1 11.5393 10.9475 0.829882
7862 1 1 9.30718 11.3894 1.789
7912 1 1 10.5683 13.7392 0.107313
273 1 1 13.755 11.8165 2.1632
7829 1 1 12.6554 13.7294 0.247445
277 1 1 14.7236 12.7387 1.20208
278 1 1 16.6959 13.6162 1.17927
281 1 1 18.2559 13.5188 1.78151
241 1 1 18.4721 11.6791 2.12258
7925 1 1 16.7651 12.6488 1.54173
315 1 1 0.294625 13.245 1.19867
365 1 1 2.97119 11.8631 1.59603
7885 1 1 2.94256 14.5052 35.3473
337 1 1 4.71215 13.0592 1.9911
643 1 1 4.69968 14.3196 0.257253
295 1 1 3.63704 14.3917 36.6702
256 1 1 7.67682 11.7631 1.23465
691 1 1 6.18472 11.8685 2.30466
259 1 1 8.36896 14.437 1.06181
254 1 1 8.46795 13.7143 0.317947
379 1 1 11.234 12.7943 37.2747
1145 1 1 11.8158 14.1356 0.471807
708 1 1 12.0425 13.5953 37.0612
309 1 1 13.7146 13.2864 37.3767
706 1 1 14.034 15.4919 1.35483
274 1 1 14.2887 13.3582 36.4262
305 1 1 15.2581 15.467 2.29231
311 1 1 15.6324 12.2597 1.89337
679 1 1 16.7445 13.7575 36.7648
751 1 1 0.451797 14.7201 0.711581
7924 1 1 0.273703 12.7076 37.5454
397 1 1 2.15653 14.6425 37.4208
323 1 1 3.42082 15.8833 1.95944
733 1 1 4.19597 15.4522 37.3463
7890 1 1 3.64292 15.4701 35.844
7887 1 1 1.8911 16.3963 1.34953
300 1 1 5.15977 16.6365 1.44216
296 1 1 5.45741 14.4037 36.1062
299 1 1 8.04268 13.8246 36.6121
264 1 1 8.19819 15.4263 1.22212
743 1 1 12.0392 15.3807 0.87382
298 1 1 12.6547 15.5362 2.18836
381 1 1 9.42866 16.747 37.4772
348 1 1 10.3588 14.53 35.9228
310 1 1 13.3488 16.2854 2.25014
747 1 1 15.0594 14.3434 1.50886
1106 1 1 15.9822 18.0881 1.27513
280 1 1 17.1928 15.7352 2.06632
702 1 1 14.1154 17.1988 0.352652
1110 1 1 17.2372 16.8883 0.626108
393 1 1 18.3637 13.7228 0.70166
749 1 1 16.5798 14.1241 0.330924
244 1 1 4.02653 13.064 36.9483
357 1 1 0.406797 11.9998 0.967373
358 1 1 1.59959 14.7103 0.720697
730 1 1 4.15471 17.3413 1.47791
327 1 1 3.53924 16.5545 1.02094
326 1 1 4.72115 15.6365 36.4765
731 1 1 1.49562 17.3228 0.462253
332 1 1 4.72727 16.116 2.09097
330 1 1 6.2453 17.4009 2.06506
341 1 1 7.52109 13.9387 1.85198
344 1 1 5.90826 15.7142 1.3038
343 1 1 7.57044 17.7656 1.2099
738 1 1 8.44227 12.572 35.786
385 1 1 9.05998 17.1283 2.15181
419 1 1 8.5022 16.5073 37.0526
784 1 1 12.1905 16.3656 1.63069
306 1 1 12.9607 16.4644 0.854043
391 1 1 11.5163 16.2864 0.559685
789 1 1 15.6307 17.4164 0.582751
356 1 1 16.5877 17.5385 0.0163723
752 1 1 14.4709 15.1441 0.514498
793 1 1 17.0921 16.0257 37.5522
437 1 1 18.3135 0.725246 1.69044
314 1 1 18.6704 15.8471 35.8326
399 1 1 0.561594 15.7802 1.4683
7995 1 1 18.0524 15.6965 0.838355
797 1 1 17.8634 16.9477 1.43214
769 1 1 0.39548 18.4697 0.401632
12 1 1 2.2281 0.368611 1.82344
7972 1 1 3.25387 18.7542 1.09198
13 1 1 7.51101 17.9275 36.2545
370 1 1 5.17837 17.3737 2.19724
375 1 1 7.04264 16.6819 1.06881
775 1 1 6.99112 18.5706 37.5366
7616 1 1 5.92767 1.31283 1.79327
377 1 1 8.3 1.06696 1.05233
19 1 1 9.15454 17.7406 2.93126
422 1 1 10.4346 1.21202 1.7349
781 1 1 8.75131 17.9766 37.5314
7617 1 1 9.70591 18.6049 37.0131
27 1 1 8.51117 17.1537 0.587772
388 1 1 9.51439 16.7052 0.945314
386 1 1 10.6469 17.0589 1.06049
392 1 1 10.7522 1.9278 37.5888
786 1 1 13.5304 18.623 0.581397
396 1 1 15.5036 18.4971 0.311695
352 1 1 14.8447 0.267362 37.223
394 1 1 16.2572 16.7267 1.22456
430 1 1 17.0467 0.974524 0.947194
434 1 1 16.9387 18.3919 37.0579
7635 1 1 0.289603 16.6218 0.359379
43 1 1 1.63396 1.22556 2.52533
405 1 1 2.50219 18.3278 0.573406
479 1 1 18.2446 1.81652 1.74007
449 1 1 4.01788 1.19393 3.10112
487 1 1 1.41314 2.01322 3.12031
893 1 1 3.79666 2.90985 0.709377
732 1 1 4.49771 0.835457 0.827886
850 1 1 6.41201 2.33632 3.26433
15 1 1 7.37382 2.52799 3.14032
774 1 1 6.57087 2.16565 2.25792
60 1 1 7.00436 0.528256 2.7746
821 1 1 9.41882 18.7565 3.42066
469 1 1 10.3655 0.116541 3.0197
818 1 1 10.316 18.6292 1.60551
425 1 1 11.7268 2.44656 1.60029
470 1 1 10.8122 2.2048 2.04403
7632 1 1 13.3077 1.07785 0.851888
32 1 1 14.4884 1.414 1.85494
65 1 1 12.4527 1.80609 0.983006
505 1 1 12.6266 2.66565 2.92223
433 1 1 16.9497 17.8318 1.38071
474 1 1 17.4863 1.13486 2.69564
517 1 1 16.3594 2.66091 2.53432
1196 1 1 16.1958 2.38359 1.40909
402 1 1 17.0357 1.72438 1.50197
481 1 1 0.134914 4.50126 1.0416
87 1 1 2.5889 3.44446 1.97435
447 1 1 2.42437 1.01992 36.8746
889 1 1 3.9003 1.92504 1.07601
380 1 1 6.35717 3.30044 1.08493
497 1 1 7.58393 3.61317 3.07166
416 1 1 8.50723 1.83723 2.10173
504 1 1 6.63913 3.28785 2.11339
854 1 1 7.85544 3.45227 5.21025
495 1 1 10.483 1.84754 3.58236
461 1 1 10.0016 3.52565 1.29337
1309 1 1 11.1252 3.29733 2.06709
508 1 1 12.4118 3.3449 1.80354
30 1 1 13.4595 0.199493 3.364
480 1 1 16.2821 1.37031 2.71648
473 1 1 15.1879 2.61608 1.85641
514 1 1 15.3922 3.25878 2.96814
838 1 1 15.7485 3.50978 1.58042
403 1 1 16.9741 1.03838 3.80175
441 1 1 18.3169 3.79842 2.41109
448 1 1 17.4095 2.19058 2.3509
44 1 1 2.58905 4.69464 0.793197
808 1 1 1.24022 3.91772 2.05492
41 1 1 2.78272 2.46366 1.27721
446 1 1 1.42305 4.64554 1.15953
885 1 1 3.09832 4.39632 1.83052
846 1 1 3.09757 3.96643 3.57292
933 1 1 3.34088 3.54943 2.61812
10 1 1 4.23454 4.14387 2.129
491 1 1 5.19585 3.1106 0.761026
96 1 1 5.54503 4.01583 1.57177
900 1 1 6.61652 4.61279 1.87071
935 1 1 7.14398 3.95062 1.29229
97 1 1 9.8665 2.86011 3.34426
500 1 1 9.48722 4.37153 2.89291
499 1 1 9.7476 2.43279 37.2748
547 1 1 12.0165 4.5805 0.643797
947 1 1 13.1395 4.49876 3.72101
68 1 1 13.3954 2.86112 1.37434
909 1 1 14.598 3.52142 1.52915
151 1 1 15.1393 3.98853 2.36679
476 1 1 16.3727 4.28168 1.54372
155 1 1 17.9941 3.96637 1.32806
519 1 1 18.4733 4.76911 1.9635
157 1 1 18.2966 2.96249 3.34972
442 1 1 0.65359 5.3082 2.00557
518 1 1 18.1202 2.80259 1.58394
523 1 1 0.877388 5.97003 1.23076
82 1 1 2.49847 5.79041 2.67192
445 1 1 3.27112 6.25613 2.061
86 1 1 2.21666 5.64295 0.331678
131 1 1 4.21075 6.24287 1.27896
936 1 1 4.78948 5.43438 2.96773
454 1 1 5.69152 4.67712 3.60759
460 1 1 7.58084 6.82622 3.51482
98 1 1 6.49895 4.43545 2.9619
462 1 1 10.5249 4.8885 3.01241
543 1 1 11.3237 4.3454 4.33405
545 1 1 10.1496 5.90105 4.57251
502 1 1 11.8819 6.00232 1.4655
553 1 1 12.4532 5.10576 2.97035
556 1 1 12.4498 4.94239 1.69068
444 1 1 17.6498 6.15695 0.967428
483 1 1 16.4614 5.929 1.73502
555 1 1 13.6456 6.17173 4.21129
559 1 1 18.4666 5.39028 0.192363
88 1 1 1.10424 4.9643 3.22564
158 1 1 0.0805511 7.68027 1.45111
969 1 1 3.21877 7.25766 37.0281
928 1 1 1.92238 6.5344 0.682433
92 1 1 2.94823 5.40565 1.37964
573 1 1 3.96546 5.03788 0.0866542
90 1 1 3.51229 7.57704 2.63205
171 1 1 6.29729 7.30435 2.96544
91 1 1 6.70692 6.51343 2.26509
536 1 1 7.30267 7.68589 2.56373
534 1 1 6.61535 5.92961 1.16405
1334 1 1 6.97821 8.41803 3.16234
135 1 1 8.13942 5.56772 1.38819
983 1 1 9.61815 7.32179 2.94576
7779 1 1 9.46857 3.3433 2.50671
140 1 1 11.474 7.08483 1.74782
938 1 1 10.5427 6.16953 2.621
152 1 1 12.5516 6.77997 2.39722
146 1 1 13.7165 6.40076 2.69786
546 1 1 13.5324 5.41683 2.15615
996 1 1 12.8567 7.29241 3.3898
112 1 1 15.5148 6.24007 1.6692
193 1 1 16.3703 7.11857 2.0455
558 1 1 15.6614 6.09049 2.66691
120 1 1 18.254 5.99253 2.09934
960 1 1 17.5674 7.04041 3.05436
125 1 1 0.871631 6.77372 1.9786
563 1 1 0.542268 8.05113 3.49187
526 1 1 1.18424 7.53577 1.33287
561 1 1 4.84483 8.73393 37.5948
930 1 1 3.71267 7.9938 1.07002
961 1 1 1.46118 8.56452 2.50293
485 1 1 2.35286 7.51486 1.28575
1005 1 1 2.57845 9.17053 1.69394
970 1 1 5.16134 7.98054 2.29821
130 1 1 6.14214 9.17083 2.8507
577 1 1 5.86152 7.88589 4.54703
136 1 1 8.30764 8.44045 2.44395
180 1 1 7.55937 9.01978 1.51462
619 1 1 10.3195 8.47733 0.0490023
973 1 1 9.60042 8.18085 1.86225
623 1 1 11.0623 6.937 0.8417
1029 1 1 13.0715 7.8139 37.4251
552 1 1 14.6987 8.32779 3.25546
1026 1 1 10.1935 7.06905 1.96478
993 1 1 13.2399 8.175 3.92178
589 1 1 14.636 9.14174 1.97269
591 1 1 15.3466 8.49131 2.24884
1000 1 1 15.4103 7.3105 2.09833
195 1 1 18.3268 8.47326 1.97749
599 1 1 17.3889 10.3843 36.871
958 1 1 16.9712 9.31137 2.81262
7684 1 1 18.5407 7.34081 2.66391
568 1 1 18.2804 10.5994 0.481831
528 1 1 4.52632 9.02635 0.949726
968 1 1 0.630343 11.5056 2.39057
1006 1 1 6.13062 10.6975 0.824902
606 1 1 6.66755 10.2959 2.91482
1010 1 1 6.54792 8.98458 1.58862
976 1 1 7.4209 11.0026 2.41619
574 1 1 6.06363 10.043 1.91942
215 1 1 7.3191 7.96551 1.28929
1020 1 1 9.22239 9.5404 2.36405
224 1 1 10.2311 7.81358 0.916139
582 1 1 11.2318 8.24741 0.812025
586 1 1 11.5467 7.77675 2.62089
633 1 1 12.0452 8.26944 1.5606
232 1 1 13.4522 9.99289 2.75127
549 1 1 12.9681 9.00709 3.11017
124 1 1 18.4695 10.713 1.76547
7796 1 1 17.3073 9.24932 1.75133
197 1 1 18.3406 10.9757 2.83536
239 1 1 18.7876 9.5409 1.17946
637 1 1 0.654204 8.7049 1.44511
642 1 1 1.38795 9.22944 0.22939
1003 1 1 0.783885 11.2621 1.42476
208 1 1 4.30509 9.4342 1.92422
1045 1 1 3.72899 8.80698 3.27604
1401 1 1 3.62436 9.6254 0.927024
647 1 1 4.27542 10.3268 1.25536
1008 1 1 4.44771 11.3899 1.90656
650 1 1 5.46796 10.8939 1.72561
1049 1 1 5.95048 12.5122 3.14408
216 1 1 7.50242 10.4493 1.40315
580 1 1 8.73864 10.3119 1.80668
618 1 1 8.49116 10.4371 3.30802
1061 1 1 8.16874 11.7115 2.19711
221 1 1 9.49526 10.8304 3.02074
584 1 1 8.40296 9.2174 3.55952
7784 1 1 10.5027 10.8731 1.41349
268 1 1 12.8997 11.2652 1.73308
665 1 1 11.9442 8.95163 0.15031
230 1 1 13.4049 10.3225 0.979587
269 1 1 13.1127 11.0255 2.99326
1034 1 1 15.4855 12.1818 2.95914
639 1 1 17.0304 12.0865 0.589576
640 1 1 14.5516 9.5582 3.10702
1038 1 1 17.126 10.5762 3.27348
1078 1 1 17.5731 11.7115 2.54583
1398 1 1 17.9392 11.0422 3.73781
1040 1 1 17.8397 11.546 1.09042
603 1 1 18.4544 10.1607 3.62548
248 1 1 3.35915 14.5219 0.171751
1048 1 1 2.93763 11.4285 2.53041
1050 1 1 3.91628 12.4834 1.47865
1047 1 1 6.85793 13.0842 3.34099
253 1 1 4.90648 13.1264 4.07954
610 1 1 6.28167 11.7698 5.09467
7823 1 1 7.27622 11.9495 2.99258
627 1 1 9.5135 13.3755 3.40014
661 1 1 7.99244 13.317 2.64729
676 1 1 12.4445 12.4613 1.66257
705 1 1 11.0013 11.8493 1.23279
265 1 1 12.3902 12.7977 0.431686
272 1 1 11.9083 15.0647 2.76248
590 1 1 15.2553 13.238 2.71267
1069 1 1 13.5996 13.233 2.18398
271 1 1 16.5213 12.2969 2.5063
638 1 1 15.18 11.6315 3.84598
276 1 1 15.3338 10.2827 2.14733
283 1 1 16.6552 13.0279 4.6972
1037 1 1 16.5286 11.1167 2.57825
1001 1 1 17.3576 12.9588 3.08744
7844 1 1 18.8211 15.1859 2.40253
685 1 1 2.29154 12.862 1.83573
7921 1 1 3.20169 13.4042 1.15413
7843 1 1 1.17249 12.4813 3.64304
325 1 1 2.7728 13.3338 2.60644
687 1 1 3.52679 12.4607 2.56968
686 1 1 3.88564 13.2563 3.44217
688 1 1 1.99214 15.2908 4.21667
287 1 1 4.90942 12.9791 3.03386
697 1 1 7.59709 13.7356 0.707342
258 1 1 10.152 13.8328 1.89397
655 1 1 10.8989 14.3622 0.908008
302 1 1 10.8178 16.3639 3.98444
1108 1 1 11.9379 13.9665 3.05244
666 1 1 12.4012 13.4658 1.89441
270 1 1 16.1305 13.2171 2.11365
630 1 1 11.5824 12.9354 2.35407
674 1 1 15.7633 13.4403 0.523002
713 1 1 17.1383 13.6075 2.33055
351 1 1 16.3373 15.1454 2.55534
717 1 1 0.915563 13.8152 3.64371
720 1 1 17.7887 13.6658 3.59132
243 1 1 1.80479 14.2078 3.24523
319 1 1 0.839811 18.1336 1.41136
721 1 1 2.6399 14.8233 1.04058
7888 1 1 1.23803 14.8213 2.01357
725 1 1 4.02392 14.0028 1.26351
1173 1 1 5.18383 14.5281 1.48197
339 1 1 5.84916 13.0719 2.23097
660 1 1 6.97658 13.9674 37.4597
776 1 1 3.92402 14.9881 1.79085
694 1 1 8.53194 14.2866 2.4212
700 1 1 9.52989 14.7784 2.53754
257 1 1 9.30381 14.6001 1.60557
701 1 1 11.5634 15.3153 4.02152
742 1 1 11.2646 15.9273 1.83241
704 1 1 9.74741 16.0147 2.8267
1143 1 1 11.6747 17.0846 2.16689
712 1 1 13.0239 15.6927 3.15308
787 1 1 14.3732 16.7243 1.62818
1146 1 1 12.0193 16.1932 2.90779
670 1 1 13.6227 14.3961 0.142664
709 1 1 16.2167 14.6254 1.29815
312 1 1 17.1294 14.4535 3.164
757 1 1 0.469556 14.1915 1.74076
1149 1 1 18.1435 16.0559 1.93472
324 1 1 18.3371 17.6591 2.03956
404 1 1 0.89184 16.8246 1.24966
682 1 1 1.00449 16.8094 3.3499
288 1 1 2.37401 13.9783 1.50302
318 1 1 0.302897 16.0553 2.59682
363 1 1 2.95978 18.0014 1.84282
1086 1 1 2.09693 17.7371 1.36988
1133 1 1 3.49928 17.0177 2.48679
331 1 1 3.26961 16.5688 37.2524
690 1 1 6.89644 16.365 2.23474
693 1 1 4.47344 17.2876 3.2092
696 1 1 5.84705 14.6668 2.55613
698 1 1 9.28185 15.7937 1.27857
737 1 1 9.27918 15.1268 4.15352
740 1 1 6.59988 14.4264 1.51994
304 1 1 10.5986 15.9557 0.950957
783 1 1 11.1244 17.6359 2.81644
346 1 1 10.1307 16.4622 1.89133
746 1 1 12.0926 17.6852 1.16829
745 1 1 12.8334 15.8151 0.11108
748 1 1 13.0819 16.7805 3.25736
432 1 1 14.3429 15.6686 2.53991
750 1 1 15.9674 16.1033 2.85819
791 1 1 17.1154 17.2238 4.35623
799 1 1 16.6687 16.9957 3.10413
1154 1 1 1.26322 13.7917 1.24737
350 1 1 0.596014 15.9445 4.53774
753 1 1 17.7794 14.8761 2.42517
798 1 1 0.449452 0.707015 0.656414
412 1 1 2.8676 18.5982 4.18551
336 1 1 4.64838 18.2452 1.78654
452 1 1 4.83225 0.705646 4.09393
777 1 1 6.10102 0.647769 0.85902
734 1 1 8.57551 16.1705 2.5981
820 1 1 9.28546 1.09389 1.72974
744 1 1 8.3487 18.6806 0.872516
1185 1 1 10.2079 17.1136 2.87428
387 1 1 12.5136 1.28182 2.07603
429 1 1 13.6621 17.9275 1.5348
792 1 1 12.9716 17.3131 2.16493
790 1 1 15.1634 0.232409 1.59011
867 1 1 13.9406 17.1449 2.7589
796 1 1 15.2458 17.9826 2.21647
1195 1 1 16.1557 18.2993 4.52049
833 1 1 17.2246 18.616 2.61906
1197 1 1 15.9845 1.03565 3.88902
754 1 1 17.8807 18.3375 0.98339
1558 1 1 18.6098 18.0351 36.4564
3 1 1 1.14653 3.69937 0.856729
762 1 1 0.286216 1.25355 1.92184
409 1 1 2.17814 2.31692 2.14972
408 1 1 3.20812 1.04629 1.33114
413 1 1 4.77534 1.62623 4.90079
767 1 1 5.34364 2.06161 2.74818
802 1 1 5.44693 2.50233 5.3568
810 1 1 7.25854 2.01657 4.13869
813 1 1 7.78218 16.876 4.24065
1180 1 1 6.9175 0.858533 3.78759
778 1 1 7.93861 17.612 3.24031
819 1 1 8.84142 18.5756 4.20185
855 1 1 6.45159 18.0231 3.08631
1138 1 1 8.51909 1.8617 3.63164
428 1 1 10.2162 17.7316 4.2964
468 1 1 11.1425 17.9989 1.6558
463 1 1 12.4019 0.107552 4.01806
507 1 1 11.1764 18.6558 4.12471
426 1 1 12.74 0.171806 2.51973
466 1 1 12.1864 18.7263 1.6067
467 1 1 16.2332 17.9023 3.308
831 1 1 14.3867 18.2841 2.73276
830 1 1 15.3722 18.6963 5.32733
436 1 1 18.6502 0.966164 3.65805
478 1 1 0.386755 2.62112 1.80752
834 1 1 16.5628 0.070716 3.78393
1161 1 1 0.0197887 18.5402 1.89439
841 1 1 0.553567 2.79834 3.32028
839 1 1 2.92599 2.92152 4.60072
368 1 1 2.14384 3.7809 1.08302
806 1 1 1.35376 2.86086 2.56738
1242 1 1 1.38797 3.85291 3.03408
857 1 1 2.60737 2.38527 3.54046
852 1 1 3.44655 1.73992 2.15875
853 1 1 4.34855 2.14503 4.10736
1210 1 1 6.49663 3.44634 3.47032
410 1 1 8.79094 2.70622 2.8174
535 1 1 7.62158 18.674 3.26422
780 1 1 10.8064 2.66741 0.995879
1178 1 1 7.64378 1.2834 2.99756
420 1 1 9.81894 2.61771 1.62281
897 1 1 10.3198 4.00546 2.24682
908 1 1 11.1903 4.07811 2.85705
64 1 1 12.3608 18.0002 2.35779
876 1 1 13.6559 2.02772 3.08442
511 1 1 16.2016 0.381255 1.15458
515 1 1 16.4348 3.76731 2.7657
917 1 1 18.4597 1.84318 2.77731
843 1 1 1.73477 3.71086 4.15927
46 1 1 3.63568 4.84377 4.44399
848 1 1 2.3782 4.43644 2.57434
1289 1 1 2.11939 3.47832 5.12581
887 1 1 3.67364 2.63197 3.34988
923 1 1 3.85039 3.44643 4.77536
1290 1 1 3.40585 4.99669 2.49959
455 1 1 5.32853 3.36456 3.50915
895 1 1 6.17246 4.1977 5.77653
894 1 1 7.25334 4.24713 5.16591
860 1 1 5.98839 2.50532 4.51797
892 1 1 5.23208 2.71324 6.74644
862 1 1 10.0985 4.88587 3.95661
866 1 1 11.5479 1.94412 5.95134
465 1 1 11.2299 3.04481 4.94845
905 1 1 10.3503 3.80225 4.37473
427 1 1 12.9775 1.79286 4.92704
870 1 1 12.8893 4.30974 2.50195
912 1 1 13.7812 3.36576 3.42191
949 1 1 14.8079 1.5508 3.07914
915 1 1 15.6564 3.84636 4.00942
119 1 1 17.015 3.03042 4.21698
801 1 1 17.0403 2.03357 3.4113
440 1 1 0.011804 3.43753 1.36186
521 1 1 18.091 4.47394 4.23542
525 1 1 0.122566 4.76648 2.89485
482 1 1 2.64972 4.44681 4.82405
884 1 1 2.26317 5.68734 5.02632
489 1 1 2.27805 4.85782 3.63464
1282 1 1 2.91306 6.25165 3.65242
450 1 1 3.87196 5.79433 3.61311
492 1 1 5.09403 6.35236 3.90423
490 1 1 5.61169 6.60774 4.79442
899 1 1 4.13979 4.60942 3.39983
1254 1 1 6.97689 4.16808 4.17134
575 1 1 7.64722 4.57183 2.04053
1337 1 1 7.34272 5.53969 2.27919
1255 1 1 8.45801 3.22348 3.56855
945 1 1 8.46942 5.14477 2.68373
503 1 1 9.42443 3.38297 4.24842
950 1 1 11.929 6.92239 4.45406
516 1 1 11.5529 3.50436 1.12335
952 1 1 10.6504 4.16243 5.3717
156 1 1 15.9996 5.00292 3.15056
520 1 1 17.0741 4.34115 3.33177
160 1 1 14.3508 4.71731 3.02589
918 1 1 17.95 3.49082 4.23834
1316 1 1 16.7774 4.66787 2.35876
488 1 1 18.6891 5.71485 3.27508
881 1 1 0.475365 4.41464 3.84548
522 1 1 0.306476 6.35947 2.59108
963 1 1 0.153855 5.42393 4.34
922 1 1 1.46841 6.05272 2.3176
959 1 1 2.24124 6.69727 4.74675
531 1 1 4.6148 7.61487 4.00537
530 1 1 5.41398 7.96129 3.59778
886 1 1 3.63131 7.49279 3.84356
537 1 1 7.11445 5.65779 3.3292
1295 1 1 8.4639 5.27969 3.82294
1377 1 1 9.43838 5.2516 3.20436
173 1 1 10.4262 6.97522 4.12087
934 1 1 8.23796 6.11388 2.38274
981 1 1 11.0462 5.16465 4.8028
944 1 1 9.49872 6.27814 3.43906
512 1 1 14.7505 7.6429 4.0283
587 1 1 11.2527 6.88886 3.24455
957 1 1 15.1305 5.43001 3.64529
956 1 1 13.7003 7.72206 4.70201
995 1 1 15.1527 6.64656 4.28708
1317 1 1 15.8774 7.05379 3.26959
1358 1 1 17.8028 4.90796 2.74709
1713 1 1 16.9841 5.62544 2.95414
999 1 1 1.23029 6.44297 3.11377
1439 1 1 1.6961 8.05596 3.56431
1012 1 1 1.80885 9.64511 2.7525
966 1 1 3.27907 8.3594 1.99101
932 1 1 2.86013 8.22764 3.33066
926 1 1 4.94745 7.85591 5.13411
571 1 1 6.31362 8.55125 4.01991
579 1 1 8.12463 9.46338 2.4708
1019 1 1 8.80537 6.52777 1.67937
539 1 1 10.4463 7.86103 2.4807
940 1 1 10.9761 6.71995 5.08127
1734 1 1 9.50953 7.97625 4.15047
581 1 1 11.5524 5.66708 2.66528
979 1 1 12.676 8.06321 2.67866
1033 1 1 13.6222 7.74179 1.95945
948 1 1 13.5039 8.35262 6.57193
560 1 1 14.4058 6.62262 3.43573
634 1 1 16.5881 10.1371 2.20097
1073 1 1 16.2517 7.59874 4.21337
1354 1 1 16.1775 9.09409 4.5343
955 1 1 17.3951 9.13398 4.6921
564 1 1 18.3541 9.89669 2.53887
921 1 1 1.48751 7.35623 2.52155
202 1 1 0.466572 8.16465 2.38314
1329 1 1 0.533686 10.4876 2.9067
1368 1 1 0.586086 10.4661 4.01995
605 1 1 4.94685 11.9205 2.91366
572 1 1 5.28442 9.00499 3.43085
612 1 1 4.79806 10.6371 3.8698
615 1 1 7.50246 9.50148 3.28282
628 1 1 9.2077 8.40606 2.8954
1421 1 1 8.46387 8.14639 3.76478
985 1 1 10.307 8.44704 3.44046
596 1 1 12.7983 9.8375 1.81907
982 1 1 11.8506 11.6823 2.02349
986 1 1 11.3952 8.74241 3.78562
626 1 1 12.0069 10.6858 1.75627
1031 1 1 12.4481 9.19443 4.14459
997 1 1 16.6871 8.83535 3.57339
1314 1 1 18.3857 8.25937 3.01975
597 1 1 1.29617 10.4086 2.20378
998 1 1 0.369877 11.9092 3.33938
1808 1 1 0.552616 12.6257 4.88115
567 1 1 2.90328 10.0295 2.46013
1405 1 1 3.59892 10.1405 3.53999
611 1 1 5.64273 9.96648 4.12166
1089 1 1 3.26256 11.3688 5.37103
972 1 1 1.63217 9.06791 5.17787
653 1 1 3.75908 11.3341 3.84017
1420 1 1 6.87495 9.64289 4.26399
1014 1 1 8.93935 10.9766 5.3946
1015 1 1 7.89141 10.0091 4.17078
659 1 1 7.40614 9.52019 5.05983
1022 1 1 8.24635 12.6437 6.43043
624 1 1 8.56621 11.0543 4.13158
1461 1 1 9.31274 8.29958 0.70081
1062 1 1 11.2644 8.64434 1.93389
1067 1 1 11.7119 9.32292 1.27838
667 1 1 12.8246 12.2186 2.58958
1063 1 1 11.8094 10.8669 4.33182
267 1 1 12.3379 8.02761 4.37826
632 1 1 12.5866 9.95339 3.40222
669 1 1 12.8791 11.9755 3.69027
1066 1 1 14.1458 11.4621 4.31391
636 1 1 14.1196 10.8408 2.38396
1030 1 1 15.0723 10.9712 2.89178
1036 1 1 13.8763 8.73946 2.62461
1434 1 1 16.1881 10.05 3.15765
1044 1 1 16.6381 11.6218 3.53089
604 1 1 2.22691 11.8562 3.37896
608 1 1 17.5295 10.0915 4.15238
681 1 1 18.3912 13.1168 6.33678
1081 1 1 2.67234 12.8362 3.54206
1085 1 1 2.42832 10.5997 4.26694
1453 1 1 3.0376 13.2242 4.6506
656 1 1 3.54048 12.4478 5.29165
1046 1 1 3.41047 14.3757 3.82708
251 1 1 4.7377 12.0523 4.01564
651 1 1 7.32407 10.8019 3.69773
1051 1 1 5.79656 10.9217 4.33831
1132 1 1 7.35398 12.075 4.25371
255 1 1 8.3846 12.2577 5.21707
621 1 1 8.91884 12.0043 2.8472
1109 1 1 10.0683 9.00077 2.59937
662 1 1 10.4127 12.9243 2.18723
1105 1 1 10.64 10.7944 2.49347
668 1 1 11.101 13.9396 2.49904
1070 1 1 12.6027 13.2148 2.75752
1509 1 1 11.6982 12.1296 3.39094
1074 1 1 13.9258 13.2571 3.14407
1474 1 1 14.4603 14.3573 3.60298
602 1 1 15.445 13.9203 3.72558
683 1 1 16.061 12.5154 3.93091
1077 1 1 17.8595 13.032 5.33721
1042 1 1 17.5683 12.1659 3.88623
1035 1 1 18.3996 12.637 3.26604
1079 1 1 17.7279 8.71104 3.72992
286 1 1 1.2118 14.5837 4.41661
718 1 1 0.366559 14.1479 5.55205
7884 1 1 1.52924 15.2252 5.12846
7883 1 1 2.82752 15.3451 5.02773
1052 1 1 0.698193 13.7351 4.71948
654 1 1 5.84295 11.6072 6.23893
689 1 1 6.3058 14.8175 3.56129
695 1 1 7.55445 13.2922 4.50449
1090 1 1 6.95629 13.9954 2.70174
1091 1 1 6.30719 12.8417 4.24833
1104 1 1 7.99912 13.8759 3.63406
1135 1 1 8.98988 13.4966 4.2858
622 1 1 7.86502 12.7328 3.5633
663 1 1 10.5436 12.9656 3.55066
1537 1 1 11.0615 14.0763 3.54219
699 1 1 12.0515 14.4467 1.53079
1102 1 1 9.14986 12.9539 2.52491
1506 1 1 10.0836 14.2034 3.13888
672 1 1 12.702 13.1202 4.46204
707 1 1 10.0994 11.855 2.3635
675 1 1 13.763 13.7916 1.31487
1114 1 1 13.6037 15.0068 2.35769
644 1 1 16.5014 13.818 5.41499
715 1 1 15.544 14.3055 2.59565
684 1 1 18.5495 12.0059 5.18778
755 1 1 16.7537 13.9808 3.94261
641 1 1 18.3557 12.5771 4.37925
360 1 1 0.178096 15.9945 5.62038
1125 1 1 1.3367 16.6354 2.42618
282 1 1 4.12565 17.2787 4.29913
284 1 1 1.84463 16.0637 3.39791
648 1 1 4.78213 15.2018 3.62001
1082 1 1 1.08229 17.522 5.66237
1128 1 1 3.04173 14.6635 2.84271
692 1 1 5.1055 14.1035 3.01517
1136 1 1 4.2504 14.0262 2.39701
1532 1 1 7.41194 12.5999 2.16359
1094 1 1 6.1443 13.8916 4.7263
1533 1 1 8.31584 14.4921 4.57938
260 1 1 8.50565 15.0544 3.27334
1098 1 1 7.7862 14.9974 2.20719
703 1 1 8.74254 16.6566 4.737
736 1 1 9.06414 14.2334 3.52737
1112 1 1 9.03662 14.4051 5.61194
1186 1 1 11.8313 16.31 4.27628
1152 1 1 12.8427 15.55 4.32248
673 1 1 16.0577 14.9864 3.9496
711 1 1 12.9687 14.2816 3.0007
716 1 1 14.9869 16.2535 0.599219
1514 1 1 17.7161 16.6099 3.16477
1151 1 1 14.4609 14.2081 2.52523
320 1 1 17.6926 13.8068 4.571
1115 1 1 16.3192 13.4985 3.08011
678 1 1 0.466663 14.3603 2.75891
1124 1 1 1.7525 13.2356 3.96789
761 1 1 0.681869 17.5782 2.58351
1561 1 1 17.6538 16.0936 5.16123
727 1 1 18.7567 17.6223 3.79907
1198 1 1 1.6877 18.7132 4.11484
292 1 1 3.8674 18.1142 3.66245
729 1 1 2.27447 1.24475 1.09481
1088 1 1 4.97964 16.2671 5.58822
1529 1 1 3.76814 16.4059 3.33808
1134 1 1 5.96998 16.8361 0.811083
1573 1 1 5.57968 16.1822 2.60679
411 1 1 6.68143 15.4402 2.62524
1140 1 1 8.39889 18.146 1.97293
1142 1 1 10.4449 15.3041 2.14051
1064 1 1 7.95018 18.0751 5.68613
788 1 1 9.98929 16.1593 5.15043
828 1 1 12.0306 17.9208 4.67354
832 1 1 13.7393 16.2402 4.28644
1193 1 1 14.6352 0.147723 4.62104
827 1 1 13.3675 18.1797 2.48799
756 1 1 14.165 17.2368 3.74145
1150 1 1 16.3343 16.0512 4.56092
759 1 1 16.943 15.8926 3.21392
435 1 1 18.1539 14.9352 3.3827
724 1 1 18.6778 16.7027 3.36268
722 1 1 1.76502 18.4001 2.56833
763 1 1 1.95679 1.4106 4.15149
764 1 1 0.810159 18.6116 3.54821
401 1 1 0.321215 0.869903 4.60476
766 1 1 1.09048 17.6166 3.99767
1122 1 1 4.01052 0.344094 3.6347
451 1 1 5.19514 17.2609 4.07603
773 1 1 4.11717 18.4816 2.65837
1130 1 1 5.35258 18.6854 3.90246
1170 1 1 5.96313 15.7626 3.55792
779 1 1 7.47104 18.5509 2.13393
1144 1 1 7.86783 17.0548 2.31313
739 1 1 9.24711 17.7348 3.97488
741 1 1 9.05201 17.8014 5.30679
423 1 1 10.0709 18.7971 4.28094
823 1 1 9.7807 16.6366 3.83721
63 1 1 11.5716 18.6324 3.10558
826 1 1 12.8459 18.6524 5.49118
824 1 1 10.1542 17.5404 1.78082