ITEM: TIMESTEP
2300
ITEM: NUMBER OF ATOMS
8000
ITEM: BOX BOUNDS pp pp pp
0.0000000000000000e+00 1.8820720577620570e+01
0.0000000000000000e+00 1.8820720577620570e+01
0.0000000000000000e+00 3.7641441155241139e+01
ITEM: ATOMS id mass type x y z
761 1 1 0.695575 0.362404 37.1043
7640 1 1 18.5942 2.12182 0.348678
7651 1 1 3.07157 18.5928 37.6131
732 1 1 4.0299 0.593805 0.822053
408 1 1 3.15826 0.888543 0.0562866
1301 1 1 5.47413 0.514728 1.26414
770 1 1 6.14583 17.9929 0.144511
7701 1 1 4.69669 18.8223 36.3623
377 1 1 9.18983 0.288277 1.44774
7620 1 1 5.64376 18.4882 36.7679
17 1 1 6.64532 0.78369 0.803532
57 1 1 9.90656 0.300399 0.61492
20 1 1 8.94844 1.54528 1.30707
7984 1 1 10.9763 0.0086372 2.20728
26 1 1 12.6356 1.17279 0.890532
746 1 1 13.367 0.360847 0.882364
511 1 1 16.369 0.254977 0.942806
835 1 1 16.6192 1.84278 1.11314
324 1 1 17.2951 0.997631 0.87211
798 1 1 16.4641 0.445979 2.03204
762 1 1 1.2899 2.57602 37.2932
7639 1 1 2.7555 3.69407 36.0298
50 1 1 3.47976 1.88899 0.159825
41 1 1 3.33019 1.55116 1.14063
37 1 1 4.65924 0.975368 36.9446
6 1 1 4.90174 2.31847 0.603467
376 1 1 6.13245 2.11611 0.916209
7611 1 1 6.82949 2.33749 2.35715
765 1 1 6.39501 2.86966 37.5432
380 1 1 5.84136 2.65989 2.03132
93 1 1 7.98531 1.15128 1.27204
7698 1 1 7.87273 2.90023 1.34024
780 1 1 9.32885 2.77402 1.20777
28 1 1 9.72571 1.5566 37.4795
7627 1 1 10.7562 1.83757 0.783254
422 1 1 10.7771 3.15633 1.66096
425 1 1 10.3755 2.19037 36.6748
65 1 1 12.5164 3.60724 0.913496
387 1 1 11.4166 3.04643 0.74668
7626 1 1 11.654 2.16121 1.52876
79 1 1 12.9141 2.30852 0.532296
786 1 1 15.1798 1.52062 1.05782
7636 1 1 13.4547 1.52376 0.177321
7986 1 1 13.6802 3.36807 1.37927
1196 1 1 14.9393 2.90814 1.41511
109 1 1 15.874 1.04216 0.412841
439 1 1 17.6253 2.16626 1.11291
402 1 1 17.7343 2.61205 0.188619
77 1 1 17.1087 1.79935 37.4017
479 1 1 18.4116 2.36425 1.71554
441 1 1 1.63056 4.91771 1.1801
806 1 1 0.870786 3.14775 0.776589
127 1 1 1.74009 5.39263 0.196968
885 1 1 3.09619 2.81186 37.1016
368 1 1 4.66964 3.1649 36.4423
96 1 1 4.11714 2.75826 37.5733
533 1 1 4.49892 3.20126 0.947405
137 1 1 6.14213 4.65382 37.3732
143 1 1 8.5428 2.27621 0.654743
461 1 1 9.7678 5.05419 1.43594
7982 1 1 10.9633 3.36156 37.3821
149 1 1 11.9431 4.09812 0.0483476
516 1 1 12.2792 2.80468 35.6738
7591 1 1 13.6584 5.25531 37.0669
476 1 1 13.3079 5.57916 0.360137
506 1 1 13.3139 3.17301 0.19698
7996 1 1 17.4923 3.95197 37.1873
117 1 1 16.7596 5.36302 0.751665
7603 1 1 0.755314 3.5618 37.2092
518 1 1 18.671 2.88626 36.9269
7359 1 1 17.9063 4.54591 0.514805
481 1 1 0.256326 6.90153 2.28077
808 1 1 0.0465117 5.61415 1.44512
49 1 1 4.35525 5.49758 3.19538
573 1 1 3.86898 3.96268 1.21868
169 1 1 3.80778 6.50004 36.2987
456 1 1 5.10971 4.33822 0.201615
7697 1 1 3.78354 5.24084 0.848849
7723 1 1 6.88 5.39355 37.5223
534 1 1 7.68592 5.99725 0.987093
135 1 1 7.54248 5.07838 36.7656
934 1 1 8.78198 5.66053 1.58238
219 1 1 8.15477 5.10633 0.338108
1309 1 1 8.97179 5.57381 0.494711
7423 1 1 9.6847 6.14681 1.04851
7672 1 1 9.18867 4.43006 37.0666
581 1 1 11.6843 5.76151 1.05716
538 1 1 12.4717 4.77001 1.07664
547 1 1 12.5011 4.02923 36.7541
72 1 1 14.7659 4.92027 37.5772
7756 1 1 15.5522 3.96063 0.851739
80 1 1 16.459 4.25445 1.26588
110 1 1 15.6991 5.83383 0.636815
760 1 1 18.6277 3.73513 0.530546
559 1 1 17.8293 5.1492 1.40192
159 1 1 0.06908 6.33641 37.6251
125 1 1 0.750096 7.06569 0.0670878
7729 1 1 2.64527 6.14676 37.3945
44 1 1 2.61198 7.31075 0.195156
131 1 1 3.43702 5.74764 1.85857
7700 1 1 5.20674 6.38616 1.22751
94 1 1 6.67113 6.72346 37.3529
7736 1 1 7.20765 7.71306 0.353009
7699 1 1 7.4149 7.2537 1.76815
217 1 1 10.215 6.87374 1.6067
142 1 1 8.62373 6.54091 0.67671
145 1 1 9.9552 5.79946 0.0948494
583 1 1 10.8789 6.05607 37.3914
100 1 1 12.3691 5.7869 0.10525
502 1 1 12.0668 7.02093 0.0202852
177 1 1 12.4916 6.36591 1.6671
150 1 1 13.5435 6.1579 1.26171
106 1 1 12.7108 4.8274 37.3177
231 1 1 14.4362 5.3157 1.07545
510 1 1 18.6072 7.45684 1.47701
7798 1 1 16.5765 6.87876 1.41074
7716 1 1 17.1328 7.43194 35.9221
153 1 1 0.639329 7.86494 1.95212
195 1 1 0.557402 8.07984 0.55486
526 1 1 2.49059 8.56096 0.0260034
1323 1 1 1.85233 7.87922 0.615874
524 1 1 3.5383 7.67129 37.3972
930 1 1 3.77222 7.73186 1.58732
529 1 1 3.36936 6.57102 0.560822
1401 1 1 5.52472 8.40422 0.43812
138 1 1 6.48488 8.07636 1.34652
176 1 1 5.96586 7.52647 37.4107
1461 1 1 8.89031 7.72761 0.201745
527 1 1 7.1393 8.83795 0.194845
178 1 1 9.28327 7.43221 1.06485
973 1 1 9.92945 8.01286 0.658232
942 1 1 11.448 6.86865 1.24297
498 1 1 10.6651 7.30701 0.787791
224 1 1 10.9748 7.19658 37.3204
633 1 1 12.0184 7.75657 0.758138
1067 1 1 11.5408 9.05704 37.4025
187 1 1 13.819 8.53762 37.5056
989 1 1 13.1915 7.70821 0.451716
557 1 1 15.9596 6.8466 37.227
552 1 1 14.6328 7.87095 2.5557
107 1 1 14.8104 7.93157 37.0769
7748 1 1 14.5305 6.62859 0.855147
594 1 1 16.3695 7.78545 0.652341
7758 1 1 17.3725 7.6383 1.2589
593 1 1 15.9646 6.35861 2.29224
238 1 1 17.7555 8.52886 0.712275
7757 1 1 0.295832 8.93409 36.67
4 1 1 18.5959 8.77138 1.38761
7769 1 1 1.94097 9.30172 0.59097
925 1 1 3.52643 9.40963 0.461878
7808 1 1 4.44527 9.90536 0.688126
7880 1 1 1.49993 10.2489 0.270666
167 1 1 4.38785 10.4862 36.2131
7734 1 1 6.83628 10.0721 0.577481
216 1 1 7.42713 10.6085 1.54013
7772 1 1 6.16925 8.56853 37.2377
218 1 1 10.9023 8.50412 1.01631
7788 1 1 8.75403 9.81949 37.5899
262 1 1 10.5025 9.45135 0.445912
1109 1 1 9.96235 10.1918 37.4912
585 1 1 13.5073 9.02259 1.17138
578 1 1 12.3915 9.70468 0.80909
665 1 1 12.574 8.67676 0.145322
589 1 1 14.1192 7.86093 0.954903
7432 1 1 13.9913 9.73364 37.3233
230 1 1 15.578 9.97816 2.24212
634 1 1 15.3912 8.28706 0.949518
190 1 1 16.3985 8.97088 1.17703
564 1 1 16.7266 9.985 2.40518
186 1 1 16.4776 9.78074 0.529989
124 1 1 0.386545 9.06101 0.230132
7796 1 1 16.5634 8.90503 37.0604
7714 1 1 17.586 9.15507 1.81052
207 1 1 2.49509 12.3524 0.526473
7804 1 1 18.4143 11.581 2.26332
1003 1 1 2.88545 11.2097 0.485107
163 1 1 5.19357 11.5398 1.0737
645 1 1 3.97167 10.3481 1.57319
652 1 1 5.34636 10.4769 1.2326
290 1 1 5.89238 9.86645 0.437486
613 1 1 4.24431 10.8126 0.0539972
1006 1 1 6.93529 11.1484 37.3625
1010 1 1 5.96778 10.9377 0.485114
256 1 1 7.87683 10.775 0.643799
7827 1 1 10.7197 11.0202 1.331
580 1 1 9.18714 9.86493 2.52426
7780 1 1 9.1122 10.545 1.59004
227 1 1 10.9642 10.5939 37.2715
7784 1 1 11.2239 12.4313 2.6038
308 1 1 12.3352 10.946 0.611029
982 1 1 13.4886 13 0.875268
626 1 1 13.4401 11.076 1.41051
7428 1 1 12.9753 11.3401 37.4649
200 1 1 16.6302 10.4367 1.50317
233 1 1 0.422266 11.3977 1.39892
7879 1 1 0.301838 12.4453 1.28283
7835 1 1 1.17005 12.8369 2.13961
204 1 1 2.51405 13.3839 37.6087
962 1 1 1.21031 12.8572 0.788407
7968 1 1 1.23112 12.2489 37.2682
337 1 1 5.45156 12.4887 1.75759
7856 1 1 6.3982 11.4412 1.58428
7811 1 1 7.34564 12.7664 37.6068
7541 1 1 9.21079 12.736 2.29459
261 1 1 8.98483 12.2702 1.23892
7468 1 1 10.3273 11.7087 37.4049
705 1 1 12.1027 13.8419 1.7458
7829 1 1 12.4666 12.8568 1.32833
301 1 1 11.4059 11.4751 0.264252
7868 1 1 13.3724 12.6363 37.1558
268 1 1 13.9399 12.0844 0.338569
595 1 1 14.642 13.2777 36.6035
639 1 1 16.823 13.0863 0.320115
1040 1 1 16.8471 13.1009 1.44385
393 1 1 18.3539 11.7198 0.897867
7924 1 1 0.654848 13.8902 0.578765
397 1 1 0.123168 14.4074 2.26565
7442 1 1 0.0831641 13.6922 1.51556
358 1 1 3.29588 13.3841 0.727881
7525 1 1 1.76514 13.8196 0.684413
730 1 1 3.16051 13.9303 36.8216
288 1 1 4.31125 12.9109 1.29195
725 1 1 5.43818 12.5413 0.121542
1532 1 1 6.12484 13.8702 1.06438
333 1 1 8.15755 11.3631 1.64601
344 1 1 6.89434 14.697 0.997917
697 1 1 8.3011 13.4012 37.5718
660 1 1 9.13346 13.3797 0.558652
264 1 1 9.09737 14.3439 0.0202575
655 1 1 11.3309 14.6398 1.37557
257 1 1 11.3191 12.6911 0.777075
7864 1 1 11.0262 13.8446 2.51081
379 1 1 11.8105 13.6314 0.321176
747 1 1 13.7684 14.1581 1.07552
676 1 1 14.2341 13.4646 0.274669
666 1 1 13.0881 14.0556 0.264561
675 1 1 12.9168 15.2107 37.2187
7876 1 1 16.0704 14.0119 36.0696
278 1 1 17.2154 14.2272 1.06508
7440 1 1 16.3477 14.3053 37.5437
758 1 1 0.753631 14.8579 1.26769
7888 1 1 2.23633 14.6042 1.16864
776 1 1 3.0508 14.8148 0.140235
300 1 1 4.66911 14.3753 0.295888
370 1 1 4.778 15.381 37.5626
721 1 1 4.87568 15.2081 1.46405
1173 1 1 5.24142 14.1995 1.5949
1573 1 1 6.11015 14.2698 0.011855
7901 1 1 7.1769 15.8722 0.823678
7937 1 1 6.91085 15.4324 1.95751
259 1 1 8.67857 14.486 1.07142
700 1 1 7.89348 15.1775 0.883739
21 1 1 9.18894 15.2237 37.1003
373 1 1 8.9244 15.7354 0.645209
391 1 1 12.4187 16.1831 0.24675
258 1 1 10.1045 15.3298 0.740593
1145 1 1 11.2752 14.6059 0.168656
7543 1 1 12.2283 14.8738 0.667085
7914 1 1 13.6086 16.0421 0.726022
706 1 1 14.4782 15.3224 1.14095
670 1 1 14.5015 15.1947 37.0926
745 1 1 13.8865 15.5124 2.18479
305 1 1 15.7491 14.2558 1.00496
7561 1 1 17.2008 15.3441 0.605755
793 1 1 0.229472 16.1849 0.865155
7635 1 1 1.33492 16.809 0.783872
753 1 1 18.4102 16.67 1.60175
438 1 1 0.990373 17.3799 37.5431
7887 1 1 1.87157 16.6891 37.3502
399 1 1 1.13968 15.7275 0.66975
1125 1 1 2.37025 16.6663 1.02222
327 1 1 3.06331 15.9288 0.0650193
7573 1 1 5.61792 16.4061 0.613633
85 1 1 4.74871 16.6095 37.4348
7971 1 1 4.60667 16.0777 0.766844
7615 1 1 5.92689 16.8149 1.42553
340 1 1 7.36509 17.4559 2.0942
51 1 1 8.11995 16.6435 0.486792
385 1 1 9.02537 18.2132 0.812761
388 1 1 10.2346 16.9737 36.8362
381 1 1 9.36424 17.0204 0.684904
304 1 1 10.3591 16.3227 -0.00400352
7983 1 1 11.3331 16.5436 37.5004
784 1 1 12.8753 16.9597 0.83436
792 1 1 12.4303 17.6168 1.49476
353 1 1 13.2114 17.1029 2.01116
752 1 1 16.9707 16.6477 0.649278
6720 1 1 15.4128 16.0624 1.13749
7478 1 1 14.6569 17.5955 1.30431
789 1 1 15.7683 17.3146 1.14999
795 1 1 16.4152 16.7229 1.68238
40 1 1 17.9175 18.0974 1.78715
319 1 1 0.935892 18.0929 0.80084
754 1 1 0.223682 17.1213 0.471971
7608 1 1 0.847768 0.486991 0.869129
731 1 1 1.70874 18.0322 37.4851
405 1 1 2.10539 1.41668 0.687763
321 1 1 1.95746 18.8093 0.496173
363 1 1 4.09114 17.2759 1.0044
7215 1 1 4.972 18.7024 0.319492
7610 1 1 6.07648 17.6301 2.33827
60 1 1 6.91651 18.4269 0.697927
29 1 1 7.53281 16.9015 1.35859
744 1 1 9.85491 0.595129 2.91762
1144 1 1 8.66768 0.0352459 37.6388
67 1 1 9.8453 17.7956 0.0221622
824 1 1 12.9168 18.3105 2.14598
785 1 1 10.9496 17.4555 1.62543
829 1 1 13.9851 18.1943 0.740384
389 1 1 12.0751 17.4416 0.388536
874 1 1 14.6495 0.310042 0.509171
429 1 1 12.2719 0.300252 0.663915
396 1 1 15.2681 18.2134 0.945843
356 1 1 17.6282 18.7331 0.93164
33 1 1 17.4463 17.1818 1.8707
477 1 1 18.1067 18.6811 37.4055
437 1 1 0.177548 18.1253 3.42294
47 1 1 1.62279 0.285695 2.42328
12 1 1 1.99294 0.671621 1.52435
362 1 1 18.6788 18.6663 1.62155
889 1 1 4.04129 1.75827 2.5193
409 1 1 3.63748 0.671066 3.17624
504 1 1 5.26697 1.78328 2.05332
336 1 1 4.57184 0.426368 1.75243
1122 1 1 4.69339 1.24391 3.25292
7616 1 1 6.41492 1.48837 1.9154
774 1 1 7.74348 0.308543 1.96773
779 1 1 6.62018 18.5075 1.72192
416 1 1 8.1166 18.192 1.5286
818 1 1 11.0092 0.108005 3.33637
97 1 1 11.4211 1.94232 3.65556
820 1 1 10.2495 1.1234 1.41968
63 1 1 11.7797 17.972 2.38395
71 1 1 12.1432 0.674987 1.82041
7632 1 1 12.5146 1.55774 3.48291
827 1 1 12.8486 0.365069 2.76463
431 1 1 14.6534 1.1984 2.1532
834 1 1 15.7178 2.25838 1.8091
949 1 1 15.2435 0.523569 1.61771
833 1 1 16.9238 1.44884 2.24551
436 1 1 0.203226 0.827146 3.49613
729 1 1 0.511372 2.12749 0.97468
852 1 1 2.14379 2.32905 1.39859
491 1 1 4.69045 1.33184 1.19589
7628 1 1 7.74093 1.72594 2.25376
14 1 1 6.73463 2.94888 1.41429
417 1 1 8.63352 0.303896 2.9317
15 1 1 8.69002 2.79343 2.09526
937 1 1 9.46117 2.06514 1.92721
426 1 1 10.8369 0.993325 2.56329
876 1 1 11.3277 2.34991 2.69277
838 1 1 13.9136 1.79688 1.22638
68 1 1 13.4086 2.75304 2.45693
517 1 1 16.4221 4.36089 0.247565
480 1 1 16.2182 2.5266 3.70956
474 1 1 16.4879 2.43743 2.50328
917 1 1 17.8793 1.25762 1.79675
881 1 1 18.7308 4.44574 1.38375
879 1 1 0.00108478 3.28925 1.51095
440 1 1 2.60757 4.53846 1.6422
933 1 1 4.83673 4.76881 1.33703
89 1 1 4.60614 2.66138 1.81479
497 1 1 5.8804 4.81007 0.882817
935 1 1 4.48718 3.92131 2.1887
900 1 1 5.50431 4.17377 2.02367
98 1 1 5.46498 4.50312 4.0155
7 1 1 7.61787 2.83854 2.68868
494 1 1 8.07329 4.3289 1.09649
102 1 1 9.26179 4.18942 1.9009
500 1 1 9.8875 3.09826 2.21235
897 1 1 10.371 3.29157 0.591731
470 1 1 10.8877 3.27912 2.70701
505 1 1 13.3932 4.54863 0.298001
508 1 1 11.0677 4.2967 0.966116
869 1 1 11.794 3.22757 1.98076
909 1 1 12.5939 4.13671 1.98986
1194 1 1 13.2603 4.59624 3.81741
39 1 1 14.4261 4.35908 0.729103
151 1 1 13.7392 1.92541 3.42161
515 1 1 15.4036 4.75009 1.96406
155 1 1 17.0818 3.76678 2.04669
1713 1 1 15.6433 3.40166 3.89556
115 1 1 17.7586 2.95266 2.21666
478 1 1 17.4646 3.63574 0.922309
1358 1 1 18.2659 3.91179 2.21537
519 1 1 18.5766 4.97191 2.19769
523 1 1 0.589727 5.45888 2.40764
82 1 1 1.01237 3.88693 1.31333
88 1 1 1.08544 6.11512 1.61513
10 1 1 2.61759 5.57872 1.18292
1290 1 1 1.60985 5.07147 2.26794
899 1 1 1.28923 3.98942 2.4602
53 1 1 5.3864 6.01238 3.3955
575 1 1 6.88485 5.18014 1.21054
179 1 1 7.24409 5.65405 2.18326
1337 1 1 6.1142 4.92611 2.59368
945 1 1 7.80342 3.72471 2.02601
1019 1 1 7.10033 4.85429 2.86336
134 1 1 9.89382 4.62071 2.53468
139 1 1 10.7045 5.26564 2.44274
908 1 1 10.4315 4.25041 1.86614
462 1 1 10.7157 5.83255 1.41975
473 1 1 12.0683 4.70601 2.90588
556 1 1 11.8278 4.86319 1.85428
1270 1 1 10.8268 5.3369 0.519599
554 1 1 13.5421 4.72469 1.3445
546 1 1 14.0802 5.71345 3.29759
1316 1 1 17.2486 4.66623 3.41831
120 1 1 17.3458 5.00747 2.33572
7718 1 1 1.55257 7.39444 2.54475
446 1 1 2.81092 7.13864 1.27307
1282 1 1 2.79201 9.28036 2.30483
92 1 1 3.35698 8.33557 0.793941
1327 1 1 6.05408 5.96871 1.744
570 1 1 6.70011 6.30959 1.11365
7735 1 1 6.16949 7.02851 0.58438
171 1 1 6.84145 8.02623 2.3223
460 1 1 8.67363 5.90411 2.75741
91 1 1 8.55634 6.81443 1.7181
536 1 1 9.1811 7.66093 2.33049
1026 1 1 10.1743 7.52296 2.76733
1774 1 1 8.2683 4.73473 2.23631
7712 1 1 9.67758 6.23737 2.32486
7751 1 1 10.0725 7.95567 1.69843
588 1 1 11.1832 5.08233 3.42453
146 1 1 13.7532 7.63272 1.96154
108 1 1 13.5986 8.13031 3.74782
113 1 1 16.5009 4.38913 2.64142
1000 1 1 15.2372 7.32417 1.55304
1317 1 1 16.0859 6.73188 3.88642
196 1 1 16.9609 8.09097 2.1429
7721 1 1 17.9758 7.08949 2.56316
550 1 1 17.5264 6.67924 1.55732
444 1 1 1.71211 7.43925 1.50314
483 1 1 17.7343 5.9869 2.51214
202 1 1 1.44411 8.60147 1.69712
1366 1 1 1.71752 9.43946 2.3564
485 1 1 4.07062 9.092 2.71697
974 1 1 2.56712 9.23569 4.63911
445 1 1 4.71848 7.20321 2.61948
532 1 1 4.91378 7.60788 1.43397
607 1 1 5.83384 7.02491 2.12171
970 1 1 6.59219 9.15847 1.07533
215 1 1 6.51082 9.14792 2.25712
7817 1 1 9.4117 9.34008 0.864475
983 1 1 9.16424 8.91713 1.83211
628 1 1 10.8156 8.27413 3.15439
1062 1 1 12.7721 8.96902 4.0319
140 1 1 11.374 7.35626 2.43878
596 1 1 13.8299 9.45259 4.15653
1033 1 1 15.1404 7.16602 3.12845
591 1 1 15.6209 8.54801 1.96858
997 1 1 17.2207 8.53371 3.14602
7684 1 1 18.6766 7.98745 3.1357
191 1 1 18.0749 8.41948 2.37172
239 1 1 0.979715 9.41766 1.41984
1329 1 1 0.261844 8.69208 2.45289
1041 1 1 2.88336 9.74979 3.22597
164 1 1 2.77861 9.93883 0.852234
637 1 1 2.39428 8.60935 1.177
566 1 1 3.56277 10.256 2.60501
208 1 1 5.56154 9.13211 1.74568
932 1 1 4.94907 10.076 3.39202
647 1 1 5.63145 10.3753 2.69068
611 1 1 4.8475 8.41641 2.19599
615 1 1 6.68126 10.1332 1.95854
180 1 1 7.7554 9.66231 2.08757
976 1 1 8.17929 9.8722 1.08892
579 1 1 9.37502 9.03027 3.1269
1020 1 1 11.5488 10.925 3.22384
1023 1 1 12.4317 9.98673 1.91764
188 1 1 14.5021 8.79991 0.788219
632 1 1 12.6187 8.515 3.10035
276 1 1 15.4917 9.37207 1.224
958 1 1 15.9453 10.1291 3.30584
1802 1 1 18.1536 8.66009 3.7211
315 1 1 1.12305 10.7989 2.37264
357 1 1 2.06794 10.6417 3.18363
998 1 1 1.1709 10.8627 3.67113
567 1 1 4.20542 11.1862 2.48757
7847 1 1 3.52717 11.4634 1.66208
687 1 1 5.52802 11.185 1.94206
691 1 1 8.21598 12.3206 2.07386
574 1 1 6.95258 12.3918 1.77943
1061 1 1 7.18495 10.6738 2.84769
618 1 1 10.2223 9.02508 1.57696
651 1 1 8.54289 10.6449 3.01982
1063 1 1 11.1945 10.1727 0.739925
1105 1 1 11.4608 9.53741 1.68269
269 1 1 12.3434 11.152 1.81216
1031 1 1 11.3372 9.8203 3.25022
1076 1 1 13.3579 8.65016 2.07864
636 1 1 14.9275 11.098 2.15655
600 1 1 15.5782 10.7227 4.19719
240 1 1 14.9256 12.0456 0.868742
7838 1 1 16.0317 10.8571 2.57199
677 1 1 17.4809 12.6123 2.19732
241 1 1 18.1412 9.90342 1.25102
7841 1 1 1.36763 11.5692 1.54201
1048 1 1 2.37008 10.9179 1.37836
7928 1 1 3.03248 12.6629 2.09701
1050 1 1 5.12151 11.8551 2.57062
252 1 1 5.83523 12.8561 3.00206
7900 1 1 5.79853 13.4999 2.17245
339 1 1 7.01311 13.5385 3.37436
622 1 1 9.04615 11.6412 2.12738
614 1 1 11.1796 11.5046 2.20658
668 1 1 11.9817 13.1203 2.88973
7903 1 1 11.6497 11.8916 1.251
667 1 1 13.1705 11.3256 2.62836
1509 1 1 12.0805 11.5828 2.71032
638 1 1 13.563 12.2409 1.54632
592 1 1 16.2837 12.5228 2.11715
273 1 1 13.7896 13.3429 1.95102
277 1 1 14.9257 13.1362 1.31589
271 1 1 14.6277 13.0173 2.72596
1078 1 1 16.828 12.2279 0.895693
281 1 1 17.9391 12.7438 1.08517
1035 1 1 0.228711 12.3136 2.65453
7840 1 1 16.8343 11.5255 2.12038
7995 1 1 18.3896 13.4773 2.75154
1154 1 1 1.20057 13.8434 1.54125
7482 1 1 1.75306 13.6931 2.44537
365 1 1 2.07642 12.5769 1.56952
685 1 1 2.32977 14.6746 2.21977
7921 1 1 2.52719 13.6299 1.7578
1081 1 1 4.48116 12.9749 2.36183
287 1 1 5.55762 13.8145 3.11288
696 1 1 6.43014 14.4189 2.50562
341 1 1 7.95509 13.7619 0.810089
627 1 1 7.87283 14.2805 1.82975
740 1 1 7.0243 13.3448 1.26845
1098 1 1 7.44776 13.3786 2.31094
254 1 1 10.9073 13.6796 0.765174
694 1 1 9.53725 13.6806 2.50227
1102 1 1 10.3011 12.5316 2.06956
1108 1 1 12.477 12.3263 2.21459
7913 1 1 12.8185 13.7078 2.58993
1069 1 1 13.6808 12.814 2.96152
674 1 1 14.7131 14.2086 1.52794
7925 1 1 16.2546 14.2586 1.92544
7834 1 1 15.4413 13.5077 0.419047
317 1 1 15.4344 14.8102 2.35531
234 1 1 16.0946 14.9392 3.11498
435 1 1 17.9777 14.1713 1.83581
7844 1 1 18.4234 14.962 1.37804
325 1 1 1.16455 14.5506 2.80006
757 1 1 0.630949 13.5591 2.84663
1007 1 1 1.70465 15.4008 1.4686
751 1 1 2.7786 15.5862 1.44185
1128 1 1 3.86145 14.3128 2.18564
330 1 1 4.33958 15.3406 2.33926
648 1 1 3.91555 15.1806 0.71713
690 1 1 8.10253 15.9324 1.64298
342 1 1 5.92128 15.2039 0.968578
658 1 1 10.2766 14.3181 1.41917
1506 1 1 10.2339 16.0545 3.26811
742 1 1 10.6709 16.5132 1.1401
662 1 1 10.4331 14.7229 3.12641
1142 1 1 10.6693 15.2339 1.91918
743 1 1 11.2776 15.6074 0.574302
298 1 1 11.7168 15.0213 2.32059
272 1 1 12.2998 14.1115 3.39072
306 1 1 15.1585 15.9929 2.21305
1146 1 1 14.1716 16.619 2.59865
699 1 1 13.8188 14.386 2.25222
709 1 1 15.9882 15.2919 1.53121
749 1 1 17.0852 15.1544 1.80536
713 1 1 16.7054 13.9744 4.16256
351 1 1 17.327 16.112 1.94564
312 1 1 0.0200798 15.8408 2.10864
7870 1 1 18.2658 15.0914 2.44378
318 1 1 1.50505 17.3472 1.78735
1199 1 1 0.671361 16.9135 2.74488
404 1 1 2.02911 16.5041 2.25039
1529 1 1 3.51646 16.0133 2.24726
773 1 1 2.83561 17.0769 2.69992
771 1 1 4.61471 16.3322 2.82475
1531 1 1 5.20706 15.7792 3.59931
1134 1 1 5.70519 15.7875 2.50878
343 1 1 9.31998 17.612 1.66292
375 1 1 9.56182 15.9305 1.34418
1176 1 1 8.96701 15.3144 1.86317
704 1 1 9.5215 16.9441 3.19312
698 1 1 9.99702 16.6498 2.14477
346 1 1 11.8314 16.6216 1.20523
64 1 1 12.5413 15.9891 2.40768
702 1 1 14.57 17.5583 3.40039
1143 1 1 12.1784 16.962 2.87193
1106 1 1 15.0939 18.4444 2.08749
394 1 1 16.2725 15.8863 2.43616
1158 1 1 17.2974 15.7284 2.98688
433 1 1 15.1464 17.3141 2.3995
728 1 1 17.4131 16.3927 3.97822
1149 1 1 17.9611 15.5078 3.68046
769 1 1 2.4965 17.8677 2.01811
682 1 1 1.73232 16.4451 3.19663
766 1 1 1.22694 18.5258 1.7848
1172 1 1 2.93352 18.4063 3.1031
7972 1 1 3.05106 0.453 1.12837
1168 1 1 6.00153 0.421645 2.21286
777 1 1 4.61334 17.0345 1.91538
1130 1 1 6.68572 18.7694 2.89529
855 1 1 7.91539 16.033 3.67163
1180 1 1 8.46466 17.0337 3.32105
19 1 1 9.16076 18.1497 3.12698
11 1 1 10.2557 18.1797 2.76478
468 1 1 9.68829 18.4713 3.88219
386 1 1 13.8961 18.5005 3.46151
783 1 1 10.8697 17.2439 2.59791
831 1 1 15.1988 18.3844 3.97097
867 1 1 13.3976 17.4191 3.13693
790 1 1 14.1451 18.2928 2.15468
800 1 1 16.121 1.152 2.85564
796 1 1 16.7689 17.5171 3.48771
794 1 1 16.7086 18.4757 2.68159
1238 1 1 0.593312 17.9428 2.48079
873 1 1 1.25689 17.6714 3.19189
43 1 1 2.69052 0.488003 4.02995
843 1 1 1.60979 0.65732 3.61414
443 1 1 1.04274 18.6218 4.1385
487 1 1 4.02649 18.4382 2.92524
292 1 1 5.40749 0.825547 4.07564
772 1 1 5.02653 18.6896 3.49004
1181 1 1 6.96099 1.36403 2.85523
863 1 1 6.27345 0.760381 3.355
861 1 1 7.15134 0.369441 4.2414
821 1 1 8.77441 18.3642 4.76007
872 1 1 11.1201 0.722349 4.30919
466 1 1 12.0116 0.671602 3.35527
828 1 1 13.5066 1.83091 5.64025
1188 1 1 11.927 2.49299 4.59497
1341 1 1 12.8298 18.7475 3.82145
30 1 1 13.0638 1.39915 2.35283
1272 1 1 14.5581 1.52012 4.00147
1597 1 1 15.1281 1.4396 3.09439
799 1 1 15.7855 1.13245 3.98425
1634 1 1 17.2002 0.000468222 4.4598
35 1 1 18.0356 0.748832 3.94001
442 1 1 1.41055 1.9153 2.28479
764 1 1 0.359145 1.53631 4.43103
1201 1 1 2.19613 1.44981 3.07984
857 1 1 2.98456 0.986378 2.11873
849 1 1 2.86901 2.04441 2.46707
767 1 1 4.28815 2.44658 3.53529
455 1 1 6.75893 4.0066 2.38603
7220 1 1 5.45331 1.80703 3.58174
850 1 1 9.18865 1.74197 2.87582
854 1 1 8.05954 1.11846 3.56098
810 1 1 8.86844 3.02353 4.39818
1138 1 1 10.1296 2.24458 2.67237
410 1 1 8.96495 0.577665 4.03321
1178 1 1 8.08423 17.9389 2.8459
469 1 1 10.6947 1.20565 3.48953
1630 1 1 10.8593 2.79343 3.59311
1273 1 1 14.1721 2.52358 4.54378
32 1 1 14.3253 2.28184 2.25631
1197 1 1 17.0767 2.43159 4.5901
1315 1 1 17.5254 3.03273 3.61934
157 1 1 17.9748 1.67422 2.80995
841 1 1 0.875502 2.78813 2.82805
521 1 1 1.95921 3.67308 1.79637
848 1 1 1.50503 3.40253 3.28603
1359 1 1 1.65706 3.94627 5.92364
87 1 1 3.6958 3.07404 2.14244
846 1 1 2.3865 3.75254 4.62279
887 1 1 3.74107 4.82182 2.10502
1256 1 1 3.97634 3.55245 3.34075
1210 1 1 5.12732 3.1447 3.38633
894 1 1 5.05798 3.6728 4.46622
860 1 1 6.98158 1.74983 3.7402
1255 1 1 8.40577 4.03063 3.12872
814 1 1 8.32077 3.06367 3.48352
1345 1 1 9.23935 2.98991 3.1319
1340 1 1 7.22571 3.65334 3.16646
1377 1 1 10.3849 3.79058 4.53598
420 1 1 12.2939 3.5132 2.98626
912 1 1 12.132 4.18671 3.95654
471 1 1 14.2855 4.31701 3.73061
514 1 1 15.3962 2.41163 3.0143
156 1 1 15.2078 4.82262 4.12151
910 1 1 15.2612 2.63011 4.80639
1669 1 1 14.9089 2.67657 3.79456
801 1 1 16.7704 3.33615 2.97644
1675 1 1 16.816 3.30711 5.08733
448 1 1 0.393465 0.705207 2.03923
918 1 1 0.322542 4.12161 6.0335
1200 1 1 1.25968 3.93815 4.65421
525 1 1 18.7914 5.87668 4.46667
1797 1 1 1.45707 4.79425 3.33728
1242 1 1 2.09761 4.24188 3.89939
1605 1 1 3.60026 4.55088 3.34395
454 1 1 4.62012 4.4909 3.30945
1733 1 1 4.3581 5.58604 4.7165
1254 1 1 5.6115 3.8829 3.10199
1295 1 1 8.47467 4.59583 3.9956
1384 1 1 7.06319 4.67579 3.98886
537 1 1 10.0039 3.66827 3.47887
939 1 1 8.06133 5.27201 3.19266
7779 1 1 11.0719 4.06889 3.74937
544 1 1 13.2499 7.19643 4.50335
870 1 1 12.5626 6.45706 3.8388
509 1 1 12.9103 5.50237 3.48155
34 1 1 14.057 3.83237 2.51024
558 1 1 14.9818 3.82283 3.09823
960 1 1 18.4454 5.25888 3.20042
520 1 1 17.8695 3.92692 3.16778
488 1 1 0.256098 4.09156 3.62115
880 1 1 17.778 5.92543 4.60332
522 1 1 18.805 6.46664 3.55221
922 1 1 0.779501 7.20361 4.92701
1285 1 1 1.12996 6.56404 3.93831
999 1 1 0.781557 7.4119 3.24101
486 1 1 1.75141 7.5373 4.11424
489 1 1 2.47926 7.031 3.4859
886 1 1 2.91183 7.72263 2.09287
966 1 1 1.97017 6.54854 2.09238
924 1 1 2.62866 5.30941 2.63434
936 1 1 3.84413 6.19103 4.11479
99 1 1 6.46994 6.01312 2.70249
1780 1 1 6.12371 6.54036 3.83837
1739 1 1 7.53201 6.53569 2.62243
1331 1 1 7.30264 7.06517 3.83172
971 1 1 8.51354 6.05435 4.13111
938 1 1 9.92644 6.21374 3.81641
1338 1 1 9.26316 5.31573 4.45911
623 1 1 10.8518 6.46945 2.28908
944 1 1 10.7943 5.79133 4.21366
551 1 1 11.7016 6.40859 3.14738
152 1 1 11.8598 5.67686 2.45411
7754 1 1 13.0916 5.96493 2.33673
512 1 1 13.6626 6.97818 5.58856
878 1 1 15.7483 5.50609 4.66636
112 1 1 16.1714 5.79679 3.20512
920 1 1 16.8116 4.91141 4.62767
1396 1 1 16.8603 6.86493 2.56897
1793 1 1 17.0714 5.64815 3.72367
1443 1 1 17.7359 6.37474 3.41972
603 1 1 18.2528 7.93468 4.5921
1365 1 1 1.63064 8.3367 3.33306
531 1 1 4.2599 9.37113 3.60486
1369 1 1 3.97182 6.71538 1.40502
1409 1 1 3.33453 7.54686 3.0875
209 1 1 3.1216 6.49936 2.61605
90 1 1 5.21591 7.01203 3.55427
1045 1 1 4.39707 7.62088 3.52511
649 1 1 8.02236 8.73086 4.76132
7850 1 1 7.51398 8.84041 2.57291
492 1 1 7.3556 8.02746 3.56441
1373 1 1 6.51956 6.93424 2.93085
530 1 1 8.08763 7.73417 2.69272
975 1 1 8.17294 7.62297 4.35876
584 1 1 9.43672 9.54553 4.89748
1421 1 1 8.91466 8.64655 4.44957
978 1 1 9.2501 7.77237 4.04185
555 1 1 10.645 6.98743 3.47431
586 1 1 10.2395 9.14704 3.97717
587 1 1 9.74888 8.18684 4.867
232 1 1 11.337 8.62846 4.24506
1036 1 1 12.612 7.12354 2.98349
979 1 1 14.3145 6.36938 2.30115
193 1 1 15.2894 8.16444 3.63905
956 1 1 14.5471 8.80452 4.4069
1314 1 1 15.8417 7.43645 2.33606
1071 1 1 16.981 7.85156 4.51487
563 1 1 17.562 7.51552 3.6439
1005 1 1 18.5011 10.0631 3.36828
1439 1 1 1.68942 9.10488 3.98421
1053 1 1 3.10863 8.56057 3.13942
1051 1 1 5.30692 10.0323 4.40818
572 1 1 5.55338 8.01846 2.83572
1420 1 1 6.57256 9.91878 3.14931
1015 1 1 7.43567 9.69711 5.04126
1017 1 1 7.67496 9.50772 3.29313
136 1 1 10.6244 9.51736 5.46616
1021 1 1 8.34527 10.08 4.24102
985 1 1 10.9427 11.0344 4.53054
539 1 1 10.2062 9.40925 2.72324
1066 1 1 12.4789 7.63608 3.97309
993 1 1 14.3117 8.79201 3.3745
640 1 1 14.9456 9.52067 2.87049
1434 1 1 15.9529 9.53725 4.65523
1073 1 1 15.7834 9.02889 3.53006
1038 1 1 17.7188 9.60567 2.75017
1037 1 1 16.866 9.19261 3.91154
1012 1 1 3.1271 11.4052 3.52798
597 1 1 0.490434 10.3229 4.38263
1444 1 1 2.29918 11.3374 4.34139
1405 1 1 3.98638 10.6931 3.58314
1085 1 1 4.95292 11.6194 3.54003
1415 1 1 5.04336 11.1568 5.09225
653 1 1 6.37845 11.4558 2.63629
1334 1 1 6.05125 10.7247 3.75934
650 1 1 6.30241 11.7082 5.23434
606 1 1 10.045 10.4143 2.67747
659 1 1 6.9845 10.8789 4.35484
1462 1 1 10.4889 10.4845 3.63103
707 1 1 9.86049 11.2933 4.0339
916 1 1 13.6239 10.4796 3.70295
1065 1 1 12.4489 10.4639 3.35161
1547 1 1 14.2108 11.9447 2.525
1429 1 1 14.1486 10.6866 2.8227
311 1 1 16.529 11.0394 3.99667
1437 1 1 15.4958 11.6162 3.1214
1034 1 1 17.2521 10.2266 3.50498
197 1 1 0.372483 9.88347 2.1123
7843 1 1 2.41247 13.1015 3.21904
1368 1 1 0.666537 11.8353 4.00371
242 1 1 2.34083 12.0837 2.62073
968 1 1 1.24954 11.653 2.94906
1406 1 1 1.7382 12.0239 4.0874
604 1 1 4.06171 12.0963 3.19791
246 1 1 3.98117 13.1596 4.34424
1008 1 1 4.95526 13.0627 3.53616
612 1 1 6.01881 13.6104 4.0624
661 1 1 7.13495 12.4753 2.86065
225 1 1 10.4186 13.1044 3.09704
7862 1 1 10.3293 11.61 2.72748
621 1 1 8.32838 13.1796 3.05295
1465 1 1 9.99511 11.5402 5.13226
663 1 1 11.4558 11.9772 3.72329
630 1 1 12.8372 12.0766 3.2335
1070 1 1 13.4334 11.4036 4.1013
1074 1 1 13.3279 12.6981 3.9157
669 1 1 14.8269 12.4816 4.3189
1474 1 1 15.6369 12.8125 3.02277
1001 1 1 16.7535 12.832 3.14512
270 1 1 17.7266 12.6601 3.35392
243 1 1 2.15258 14.3872 3.29618
286 1 1 2.10944 14.6169 4.89577
678 1 1 18.5496 13.1498 3.76917
686 1 1 2.82668 13.3165 4.44869
1453 1 1 3.94111 14.2951 3.22329
1136 1 1 2.89164 13.8121 2.7677
1446 1 1 3.94959 13.3094 3.28498
605 1 1 6.07925 14.8724 3.35886
1047 1 1 6.82682 12.4839 3.83789
1090 1 1 7.09394 14.6025 3.23289
7823 1 1 8.31044 12.6441 4.37304
1104 1 1 7.82903 13.4584 3.87956
1533 1 1 9.42011 14.0265 3.47819
1537 1 1 11.1071 14.2586 3.87118
664 1 1 9.70158 15.0627 4.23958
1114 1 1 12.6916 14.7602 2.2615
711 1 1 11.9008 13.9382 4.46986
1501 1 1 12.1019 12.9278 4.06619
1505 1 1 12.6394 14.3192 5.28124
602 1 1 13.4571 15.1177 3.03512
672 1 1 13.6899 13.4994 4.48134
1151 1 1 13.2309 13.6066 3.43932
1472 1 1 12.8922 15.1923 3.80895
715 1 1 14.488 14.015 3.73081
1115 1 1 14.304 13.2669 5.26327
590 1 1 15.6373 13.941 3.2554
1042 1 1 15.8897 13.2053 4.22046
720 1 1 17.6194 13.7019 3.59458
683 1 1 16.6804 13.8877 2.9149
1163 1 1 0.586597 13.7178 4.46685
1046 1 1 0.626234 15.3922 3.0433
332 1 1 4.0661 15.3203 3.35062
1131 1 1 3.42126 15.9373 3.80104
411 1 1 5.17259 14.688 2.47477
1530 1 1 4.90339 14.5944 3.48093
1170 1 1 7.23386 15.7713 2.96739
737 1 1 8.56947 14.1326 2.6561
260 1 1 8.18905 15.2973 2.79398
1127 1 1 6.80469 13.8207 4.53504
736 1 1 9.34556 14.9965 3.01398
1139 1 1 11.2256 15.8142 4.84847
1107 1 1 11.7832 14.9729 4.17579
1543 1 1 12.2029 16.4895 4.54711
701 1 1 11.0911 16.3244 2.36059
310 1 1 14.7231 14.1487 2.69356
712 1 1 13.3534 16.2205 3.84906
1153 1 1 14.5435 15.2906 3.18749
1514 1 1 1.25075 14.9659 4.44769
759 1 1 17.2212 14.766 3.71698
724 1 1 18.6881 14.5869 3.31327
284 1 1 0.93981 16.3511 3.86851
1167 1 1 1.9362 15.3091 3.44902
323 1 1 3.6801 17.2154 3.27768
282 1 1 2.66292 16.2141 3.35469
1133 1 1 6.35929 15.3032 4.62894
734 1 1 7.05105 16.6942 3.83651
778 1 1 6.70428 17.0116 5.43104
535 1 1 6.49817 17.5511 4.51609
7975 1 1 7.22776 15.8873 4.62711
1185 1 1 9.81065 16.6143 4.245
1541 1 1 8.95745 16.4655 1.99908
823 1 1 12.481 17.343 5.37648
671 1 1 10.6207 17.6645 3.47361
1186 1 1 12.378 16.0056 3.37646
1183 1 1 14.4449 15.8898 4.58598
1187 1 1 12.2312 17.3623 3.97284
1191 1 1 14.4546 16.8058 4.04267
748 1 1 15.525 15.9722 4.35069
716 1 1 16.1988 16.7057 3.40053
1150 1 1 16.2685 15.762 3.78287
1189 1 1 16.0765 17.3885 4.39813
280 1 1 0.332821 17.1216 3.83285
727 1 1 18.6047 16.1737 4.27801
837 1 1 18.651 18.004 0.863929
1161 1 1 2.56305 17.4835 3.59402
726 1 1 5.06948 18.3344 2.24472
693 1 1 4.0392 16.2049 4.72366
1215 1 1 6.16822 18.6934 3.84402
1217 1 1 4.51351 16.7314 3.8773
1213 1 1 7.03577 17.8769 3.72887
1140 1 1 7.94023 18.4983 4.04379
423 1 1 9.9284 16.6574 5.4051
428 1 1 9.98431 0.598738 3.99346
822 1 1 10.9592 0.639512 5.38853
1141 1 1 10.272 17.7142 4.59371
432 1 1 15.0321 16.1449 3.40757
463 1 1 14.7613 17.3175 5.03125
1195 1 1 15.5151 0.0421124 2.97408
467 1 1 13.3036 0.85158 3.72325
1590 1 1 14.6738 0.534037 3.52272
787 1 1 16.6 18.7525 3.64126
1160 1 1 17.0127 0.64463 3.14194
2037 1 1 18.3693 16.5237 3.20652
1239 1 1 1.76031 0.405389 4.90193
1206 1 1 3.13036 1.58383 4.84215