ITEM: TIMESTEP
0
ITEM: NUMBER OF ATOMS
8000
ITEM: BOX BOUNDS pp pp pp
0.0000000000000000e+00 1.8820720577620570e+01
0.0000000000000000e+00 1.8820720577620570e+01
0.0000000000000000e+00 3.7641441155241139e+01
ITEM: ATOMS id mass type x y z
1 1 1 0 0 0
2 1 1 0.941036 0.941036 0
3 1 1 0.941036 0 0.941036
4 1 1 0 0.941036 0.941036
5 1 1 1.88207 0 0
6 1 1 2.82311 0.941036 0
7 1 1 2.82311 0 0.941036
8 1 1 1.88207 0.941036 0.941036
9 1 1 3.76414 0 0
12 1 1 3.76414 0.941036 0.941036
10 1 1 4.70518 0.941036 0
11 1 1 4.70518 0 0.941036
13 1 1 5.64622 0 0
16 1 1 5.64622 0.941036 0.941036
14 1 1 6.58725 0.941036 0
15 1 1 6.58725 0 0.941036
17 1 1 7.52829 0 0
18 1 1 8.46932 0.941036 0
19 1 1 8.46932 0 0.941036
20 1 1 7.52829 0.941036 0.941036
21 1 1 9.41036 0 0
24 1 1 9.41036 0.941036 0.941036
22 1 1 10.3514 0.941036 0
23 1 1 10.3514 0 0.941036
25 1 1 11.2924 0 0
28 1 1 11.2924 0.941036 0.941036
26 1 1 12.2335 0.941036 0
27 1 1 12.2335 0 0.941036
29 1 1 13.1745 0 0
30 1 1 14.1155 0.941036 0
31 1 1 14.1155 0 0.941036
32 1 1 13.1745 0.941036 0.941036
33 1 1 15.0566 0 0
36 1 1 15.0566 0.941036 0.941036
34 1 1 15.9976 0.941036 0
35 1 1 15.9976 0 0.941036
37 1 1 16.9386 0 0
40 1 1 16.9386 0.941036 0.941036
38 1 1 17.8797 0.941036 0
39 1 1 17.8797 0 0.941036
41 1 1 0 1.88207 0
42 1 1 0.941036 2.82311 0
43 1 1 0.941036 1.88207 0.941036
44 1 1 0 2.82311 0.941036
45 1 1 1.88207 1.88207 0
46 1 1 2.82311 2.82311 0
47 1 1 2.82311 1.88207 0.941036
48 1 1 1.88207 2.82311 0.941036
49 1 1 3.76414 1.88207 0
52 1 1 3.76414 2.82311 0.941036
50 1 1 4.70518 2.82311 0
51 1 1 4.70518 1.88207 0.941036
53 1 1 5.64622 1.88207 0
56 1 1 5.64622 2.82311 0.941036
54 1 1 6.58725 2.82311 0
55 1 1 6.58725 1.88207 0.941036
57 1 1 7.52829 1.88207 0
58 1 1 8.46932 2.82311 0
59 1 1 8.46932 1.88207 0.941036
60 1 1 7.52829 2.82311 0.941036
61 1 1 9.41036 1.88207 0
64 1 1 9.41036 2.82311 0.941036
62 1 1 10.3514 2.82311 0
63 1 1 10.3514 1.88207 0.941036
65 1 1 11.2924 1.88207 0
68 1 1 11.2924 2.82311 0.941036
66 1 1 12.2335 2.82311 0
67 1 1 12.2335 1.88207 0.941036
69 1 1 13.1745 1.88207 0
70 1 1 14.1155 2.82311 0
71 1 1 14.1155 1.88207 0.941036
72 1 1 13.1745 2.82311 0.941036
73 1 1 15.0566 1.88207 0
76 1 1 15.0566 2.82311 0.941036
74 1 1 15.9976 2.82311 0
75 1 1 15.9976 1.88207 0.941036
77 1 1 16.9386 1.88207 0
80 1 1 16.9386 2.82311 0.941036
78 1 1 17.8797 2.82311 0
79 1 1 17.8797 1.88207 0.941036
81 1 1 0 3.76414 0
83 1 1 0.941036 3.76414 0.941036
85 1 1 1.88207 3.76414 0
87 1 1 2.82311 3.76414 0.941036
89 1 1 3.76414 3.76414 0
91 1 1 4.70518 3.76414 0.941036
93 1 1 5.64622 3.76414 0
95 1 1 6.58725 3.76414 0.941036
97 1 1 7.52829 3.76414 0
99 1 1 8.46932 3.76414 0.941036
101 1 1 9.41036 3.76414 0
103 1 1 10.3514 3.76414 0.941036
105 1 1 11.2924 3.76414 0
107 1 1 12.2335 3.76414 0.941036
109 1 1 13.1745 3.76414 0
111 1 1 14.1155 3.76414 0.941036
113 1 1 15.0566 3.76414 0
115 1 1 15.9976 3.76414 0.941036
117 1 1 16.9386 3.76414 0
119 1 1 17.8797 3.76414 0.941036
82 1 1 0.941036 4.70518 0
84 1 1 0 4.70518 0.941036
121 1 1 0 5.64622 0
123 1 1 0.941036 5.64622 0.941036
86 1 1 2.82311 4.70518 0
88 1 1 1.88207 4.70518 0.941036
125 1 1 1.88207 5.64622 0
127 1 1 2.82311 5.64622 0.941036
92 1 1 3.76414 4.70518 0.941036
129 1 1 3.76414 5.64622 0
90 1 1 4.70518 4.70518 0
96 1 1 5.64622 4.70518 0.941036
131 1 1 4.70518 5.64622 0.941036
133 1 1 5.64622 5.64622 0
94 1 1 6.58725 4.70518 0
135 1 1 6.58725 5.64622 0.941036
98 1 1 8.46932 4.70518 0
100 1 1 7.52829 4.70518 0.941036
137 1 1 7.52829 5.64622 0
139 1 1 8.46932 5.64622 0.941036
104 1 1 9.41036 4.70518 0.941036
141 1 1 9.41036 5.64622 0
102 1 1 10.3514 4.70518 0
108 1 1 11.2924 4.70518 0.941036
143 1 1 10.3514 5.64622 0.941036
145 1 1 11.2924 5.64622 0
106 1 1 12.2335 4.70518 0
147 1 1 12.2335 5.64622 0.941036
110 1 1 14.1155 4.70518 0
112 1 1 13.1745 4.70518 0.941036
149 1 1 13.1745 5.64622 0
151 1 1 14.1155 5.64622 0.941036
116 1 1 15.0566 4.70518 0.941036
153 1 1 15.0566 5.64622 0
114 1 1 15.9976 4.70518 0
120 1 1 16.9386 4.70518 0.941036
155 1 1 15.9976 5.64622 0.941036
157 1 1 16.9386 5.64622 0
118 1 1 17.8797 4.70518 0
159 1 1 17.8797 5.64622 0.941036
122 1 1 0.941036 6.58725 0
124 1 1 0 6.58725 0.941036
126 1 1 2.82311 6.58725 0
128 1 1 1.88207 6.58725 0.941036
132 1 1 3.76414 6.58725 0.941036
130 1 1 4.70518 6.58725 0
136 1 1 5.64622 6.58725 0.941036
134 1 1 6.58725 6.58725 0
138 1 1 8.46932 6.58725 0
140 1 1 7.52829 6.58725 0.941036
144 1 1 9.41036 6.58725 0.941036
142 1 1 10.3514 6.58725 0
148 1 1 11.2924 6.58725 0.941036
146 1 1 12.2335 6.58725 0
150 1 1 14.1155 6.58725 0
152 1 1 13.1745 6.58725 0.941036
156 1 1 15.0566 6.58725 0.941036
154 1 1 15.9976 6.58725 0
160 1 1 16.9386 6.58725 0.941036
158 1 1 17.8797 6.58725 0
161 1 1 0 7.52829 0
162 1 1 0.941036 8.46932 0
163 1 1 0.941036 7.52829 0.941036
164 1 1 0 8.46932 0.941036
165 1 1 1.88207 7.52829 0
166 1 1 2.82311 8.46932 0
167 1 1 2.82311 7.52829 0.941036
168 1 1 1.88207 8.46932 0.941036
169 1 1 3.76414 7.52829 0
172 1 1 3.76414 8.46932 0.941036
170 1 1 4.70518 8.46932 0
171 1 1 4.70518 7.52829 0.941036
173 1 1 5.64622 7.52829 0
176 1 1 5.64622 8.46932 0.941036
174 1 1 6.58725 8.46932 0
175 1 1 6.58725 7.52829 0.941036
177 1 1 7.52829 7.52829 0
178 1 1 8.46932 8.46932 0
179 1 1 8.46932 7.52829 0.941036
180 1 1 7.52829 8.46932 0.941036
181 1 1 9.41036 7.52829 0
184 1 1 9.41036 8.46932 0.941036
182 1 1 10.3514 8.46932 0
183 1 1 10.3514 7.52829 0.941036
185 1 1 11.2924 7.52829 0
188 1 1 11.2924 8.46932 0.941036
186 1 1 12.2335 8.46932 0
187 1 1 12.2335 7.52829 0.941036
189 1 1 13.1745 7.52829 0
190 1 1 14.1155 8.46932 0
191 1 1 14.1155 7.52829 0.941036
192 1 1 13.1745 8.46932 0.941036
193 1 1 15.0566 7.52829 0
196 1 1 15.0566 8.46932 0.941036
194 1 1 15.9976 8.46932 0
195 1 1 15.9976 7.52829 0.941036
197 1 1 16.9386 7.52829 0
200 1 1 16.9386 8.46932 0.941036
198 1 1 17.8797 8.46932 0
199 1 1 17.8797 7.52829 0.941036
201 1 1 0 9.41036 0
203 1 1 0.941036 9.41036 0.941036
205 1 1 1.88207 9.41036 0
207 1 1 2.82311 9.41036 0.941036
209 1 1 3.76414 9.41036 0
211 1 1 4.70518 9.41036 0.941036
213 1 1 5.64622 9.41036 0
215 1 1 6.58725 9.41036 0.941036
217 1 1 7.52829 9.41036 0
219 1 1 8.46932 9.41036 0.941036
221 1 1 9.41036 9.41036 0
223 1 1 10.3514 9.41036 0.941036
225 1 1 11.2924 9.41036 0
227 1 1 12.2335 9.41036 0.941036
229 1 1 13.1745 9.41036 0
231 1 1 14.1155 9.41036 0.941036
233 1 1 15.0566 9.41036 0
235 1 1 15.9976 9.41036 0.941036
237 1 1 16.9386 9.41036 0
239 1 1 17.8797 9.41036 0.941036
202 1 1 0.941036 10.3514 0
204 1 1 0 10.3514 0.941036
241 1 1 0 11.2924 0
243 1 1 0.941036 11.2924 0.941036
206 1 1 2.82311 10.3514 0
208 1 1 1.88207 10.3514 0.941036
245 1 1 1.88207 11.2924 0
247 1 1 2.82311 11.2924 0.941036
212 1 1 3.76414 10.3514 0.941036
249 1 1 3.76414 11.2924 0
210 1 1 4.70518 10.3514 0
216 1 1 5.64622 10.3514 0.941036
251 1 1 4.70518 11.2924 0.941036
253 1 1 5.64622 11.2924 0
214 1 1 6.58725 10.3514 0
255 1 1 6.58725 11.2924 0.941036
218 1 1 8.46932 10.3514 0
220 1 1 7.52829 10.3514 0.941036
257 1 1 7.52829 11.2924 0
259 1 1 8.46932 11.2924 0.941036
224 1 1 9.41036 10.3514 0.941036
261 1 1 9.41036 11.2924 0
222 1 1 10.3514 10.3514 0
228 1 1 11.2924 10.3514 0.941036
263 1 1 10.3514 11.2924 0.941036
265 1 1 11.2924 11.2924 0
226 1 1 12.2335 10.3514 0
267 1 1 12.2335 11.2924 0.941036
230 1 1 14.1155 10.3514 0
232 1 1 13.1745 10.3514 0.941036
269 1 1 13.1745 11.2924 0
271 1 1 14.1155 11.2924 0.941036
236 1 1 15.0566 10.3514 0.941036
273 1 1 15.0566 11.2924 0
234 1 1 15.9976 10.3514 0
240 1 1 16.9386 10.3514 0.941036
275 1 1 15.9976 11.2924 0.941036
277 1 1 16.9386 11.2924 0
238 1 1 17.8797 10.3514 0
279 1 1 17.8797 11.2924 0.941036
242 1 1 0.941036 12.2335 0
244 1 1 0 12.2335 0.941036
246 1 1 2.82311 12.2335 0
248 1 1 1.88207 12.2335 0.941036
252 1 1 3.76414 12.2335 0.941036
250 1 1 4.70518 12.2335 0
256 1 1 5.64622 12.2335 0.941036
254 1 1 6.58725 12.2335 0
258 1 1 8.46932 12.2335 0
260 1 1 7.52829 12.2335 0.941036
264 1 1 9.41036 12.2335 0.941036
262 1 1 10.3514 12.2335 0
268 1 1 11.2924 12.2335 0.941036
266 1 1 12.2335 12.2335 0
270 1 1 14.1155 12.2335 0
272 1 1 13.1745 12.2335 0.941036
276 1 1 15.0566 12.2335 0.941036
274 1 1 15.9976 12.2335 0
280 1 1 16.9386 12.2335 0.941036
278 1 1 17.8797 12.2335 0
281 1 1 0 13.1745 0
282 1 1 0.941036 14.1155 0
283 1 1 0.941036 13.1745 0.941036
284 1 1 0 14.1155 0.941036
285 1 1 1.88207 13.1745 0
286 1 1 2.82311 14.1155 0
287 1 1 2.82311 13.1745 0.941036
288 1 1 1.88207 14.1155 0.941036
289 1 1 3.76414 13.1745 0
292 1 1 3.76414 14.1155 0.941036
290 1 1 4.70518 14.1155 0
291 1 1 4.70518 13.1745 0.941036
293 1 1 5.64622 13.1745 0
296 1 1 5.64622 14.1155 0.941036
294 1 1 6.58725 14.1155 0
295 1 1 6.58725 13.1745 0.941036
297 1 1 7.52829 13.1745 0
298 1 1 8.46932 14.1155 0
299 1 1 8.46932 13.1745 0.941036
300 1 1 7.52829 14.1155 0.941036
301 1 1 9.41036 13.1745 0
304 1 1 9.41036 14.1155 0.941036
302 1 1 10.3514 14.1155 0
303 1 1 10.3514 13.1745 0.941036
305 1 1 11.2924 13.1745 0
308 1 1 11.2924 14.1155 0.941036
306 1 1 12.2335 14.1155 0
307 1 1 12.2335 13.1745 0.941036
309 1 1 13.1745 13.1745 0
310 1 1 14.1155 14.1155 0
311 1 1 14.1155 13.1745 0.941036
312 1 1 13.1745 14.1155 0.941036
313 1 1 15.0566 13.1745 0
316 1 1 15.0566 14.1155 0.941036
314 1 1 15.9976 14.1155 0
315 1 1 15.9976 13.1745 0.941036
317 1 1 16.9386 13.1745 0
320 1 1 16.9386 14.1155 0.941036
318 1 1 17.8797 14.1155 0
319 1 1 17.8797 13.1745 0.941036
321 1 1 0 15.0566 0
323 1 1 0.941036 15.0566 0.941036
325 1 1 1.88207 15.0566 0
327 1 1 2.82311 15.0566 0.941036
329 1 1 3.76414 15.0566 0
331 1 1 4.70518 15.0566 0.941036
333 1 1 5.64622 15.0566 0
335 1 1 6.58725 15.0566 0.941036
337 1 1 7.52829 15.0566 0
339 1 1 8.46932 15.0566 0.941036
341 1 1 9.41036 15.0566 0
343 1 1 10.3514 15.0566 0.941036
345 1 1 11.2924 15.0566 0
347 1 1 12.2335 15.0566 0.941036
349 1 1 13.1745 15.0566 0
351 1 1 14.1155 15.0566 0.941036
353 1 1 15.0566 15.0566 0
355 1 1 15.9976 15.0566 0.941036
357 1 1 16.9386 15.0566 0
359 1 1 17.8797 15.0566 0.941036
322 1 1 0.941036 15.9976 0
324 1 1 0 15.9976 0.941036
361 1 1 0 16.9386 0
363 1 1 0.941036 16.9386 0.941036
326 1 1 2.82311 15.9976 0
328 1 1 1.88207 15.9976 0.941036
365 1 1 1.88207 16.9386 0
367 1 1 2.82311 16.9386 0.941036
332 1 1 3.76414 15.9976 0.941036
369 1 1 3.76414 16.9386 0
330 1 1 4.70518 15.9976 0
336 1 1 5.64622 15.9976 0.941036
371 1 1 4.70518 16.9386 0.941036
373 1 1 5.64622 16.9386 0
334 1 1 6.58725 15.9976 0
375 1 1 6.58725 16.9386 0.941036
338 1 1 8.46932 15.9976 0
340 1 1 7.52829 15.9976 0.941036
377 1 1 7.52829 16.9386 0
379 1 1 8.46932 16.9386 0.941036
344 1 1 9.41036 15.9976 0.941036
381 1 1 9.41036 16.9386 0
342 1 1 10.3514 15.9976 0
348 1 1 11.2924 15.9976 0.941036
383 1 1 10.3514 16.9386 0.941036
385 1 1 11.2924 16.9386 0
346 1 1 12.2335 15.9976 0
387 1 1 12.2335 16.9386 0.941036
350 1 1 14.1155 15.9976 0
352 1 1 13.1745 15.9976 0.941036
389 1 1 13.1745 16.9386 0
391 1 1 14.1155 16.9386 0.941036
356 1 1 15.0566 15.9976 0.941036
393 1 1 15.0566 16.9386 0
354 1 1 15.9976 15.9976 0
360 1 1 16.9386 15.9976 0.941036
395 1 1 15.9976 16.9386 0.941036
397 1 1 16.9386 16.9386 0
358 1 1 17.8797 15.9976 0
399 1 1 17.8797 16.9386 0.941036
362 1 1 0.941036 17.8797 0
364 1 1 0 17.8797 0.941036
366 1 1 2.82311 17.8797 0
368 1 1 1.88207 17.8797 0.941036
372 1 1 3.76414 17.8797 0.941036
370 1 1 4.70518 17.8797 0
376 1 1 5.64622 17.8797 0.941036
374 1 1 6.58725 17.8797 0
378 1 1 8.46932 17.8797 0
380 1 1 7.52829 17.8797 0.941036
384 1 1 9.41036 17.8797 0.941036
382 1 1 10.3514 17.8797 0
388 1 1 11.2924 17.8797 0.941036
386 1 1 12.2335 17.8797 0
390 1 1 14.1155 17.8797 0
392 1 1 13.1745 17.8797 0.941036
396 1 1 15.0566 17.8797 0.941036
394 1 1 15.9976 17.8797 0
400 1 1 16.9386 17.8797 0.941036
398 1 1 17.8797 17.8797 0
401 1 1 0 0 1.88207
402 1 1 0.941036 0.941036 1.88207
403 1 1 0.941036 0 2.82311
404 1 1 0 0.941036 2.82311
405 1 1 1.88207 0 1.88207
406 1 1 2.82311 0.941036 1.88207
407 1 1 2.82311 0 2.82311
408 1 1 1.88207 0.941036 2.82311
409 1 1 3.76414 0 1.88207
412 1 1 3.76414 0.941036 2.82311
410 1 1 4.70518 0.941036 1.88207
411 1 1 4.70518 0 2.82311
413 1 1 5.64622 0 1.88207
416 1 1 5.64622 0.941036 2.82311
414 1 1 6.58725 0.941036 1.88207
415 1 1 6.58725 0 2.82311
417 1 1 7.52829 0 1.88207
418 1 1 8.46932 0.941036 1.88207
419 1 1 8.46932 0 2.82311
420 1 1 7.52829 0.941036 2.82311
421 1 1 9.41036 0 1.88207
424 1 1 9.41036 0.941036 2.82311
422 1 1 10.3514 0.941036 1.88207
423 1 1 10.3514 0 2.82311
425 1 1 11.2924 0 1.88207
428 1 1 11.2924 0.941036 2.82311
426 1 1 12.2335 0.941036 1.88207
427 1 1 12.2335 0 2.82311
429 1 1 13.1745 0 1.88207
430 1 1 14.1155 0.941036 1.88207
431 1 1 14.1155 0 2.82311
432 1 1 13.1745 0.941036 2.82311
433 1 1 15.0566 0 1.88207
436 1 1 15.0566 0.941036 2.82311
434 1 1 15.9976 0.941036 1.88207
435 1 1 15.9976 0 2.82311
437 1 1 16.9386 0 1.88207
440 1 1 16.9386 0.941036 2.82311
438 1 1 17.8797 0.941036 1.88207
439 1 1 17.8797 0 2.82311
441 1 1 0 1.88207 1.88207
442 1 1 0.941036 2.82311 1.88207
443 1 1 0.941036 1.88207 2.82311
444 1 1 0 2.82311 2.82311
445 1 1 1.88207 1.88207 1.88207
446 1 1 2.82311 2.82311 1.88207
447 1 1 2.82311 1.88207 2.82311
448 1 1 1.88207 2.82311 2.82311
449 1 1 3.76414 1.88207 1.88207
452 1 1 3.76414 2.82311 2.82311
450 1 1 4.70518 2.82311 1.88207
451 1 1 4.70518 1.88207 2.82311
453 1 1 5.64622 1.88207 1.88207
456 1 1 5.64622 2.82311 2.82311
454 1 1 6.58725 2.82311 1.88207
455 1 1 6.58725 1.88207 2.82311
457 1 1 7.52829 1.88207 1.88207
458 1 1 8.46932 2.82311 1.88207
459 1 1 8.46932 1.88207 2.82311
460 1 1 7.52829 2.82311 2.82311
461 1 1 9.41036 1.88207 1.88207
464 1 1 9.41036 2.82311 2.82311
462 1 1 10.3514 2.82311 1.88207
463 1 1 10.3514 1.88207 2.82311
465 1 1 11.2924 1.88207 1.88207
468 1 1 11.2924 2.82311 2.82311
466 1 1 12.2335 2.82311 1.88207
467 1 1 12.2335 1.88207 2.82311
469 1 1 13.1745 1.88207 1.88207
470 1 1 14.1155 2.82311 1.88207
471 1 1 14.1155 1.88207 2.82311
472 1 1 13.1745 2.82311 2.82311
473 1 1 15.0566 1.88207 1.88207
476 1 1 15.0566 2.82311 2.82311
474 1 1 15.9976 2.82311 1.88207
475 1 1 15.9976 1.88207 2.82311
477 1 1 16.9386 1.88207 1.88207
480 1 1 16.9386 2.82311 2.82311
478 1 1 17.8797 2.82311 1.88207
479 1 1 17.8797 1.88207 2.82311
481 1 1 0 3.76414 1.88207
483 1 1 0.941036 3.76414 2.82311
485 1 1 1.88207 3.76414 1.88207
487 1 1 2.82311 3.76414 2.82311
489 1 1 3.76414 3.76414 1.88207
491 1 1 4.70518 3.76414 2.82311
493 1 1 5.64622 3.76414 1.88207
495 1 1 6.58725 3.76414 2.82311
497 1 1 7.52829 3.76414 1.88207
499 1 1 8.46932 3.76414 2.82311
501 1 1 9.41036 3.76414 1.88207
503 1 1 10.3514 3.76414 2.82311
505 1 1 11.2924 3.76414 1.88207
507 1 1 12.2335 3.76414 2.82311
509 1 1 13.1745 3.76414 1.88207
511 1 1 14.1155 3.76414 2.82311
513 1 1 15.0566 3.76414 1.88207
515 1 1 15.9976 3.76414 2.82311
517 1 1 16.9386 3.76414 1.88207
519 1 1 17.8797 3.76414 2.82311
482 1 1 0.941036 4.70518 1.88207
484 1 1 0 4.70518 2.82311
521 1 1 0 5.64622 1.88207
523 1 1 0.941036 5.64622 2.82311
486 1 1 2.82311 4.70518 1.88207
488 1 1 1.88207 4.70518 2.82311
525 1 1 1.88207 5.64622 1.88207
527 1 1 2.82311 5.64622 2.82311
492 1 1 3.76414 4.70518 2.82311
529 1 1 3.76414 5.64622 1.88207
490 1 1 4.70518 4.70518 1.88207
496 1 1 5.64622 4.70518 2.82311
531 1 1 4.70518 5.64622 2.82311
533 1 1 5.64622 5.64622 1.88207
494 1 1 6.58725 4.70518 1.88207
535 1 1 6.58725 5.64622 2.82311
498 1 1 8.46932 4.70518 1.88207
500 1 1 7.52829 4.70518 2.82311
537 1 1 7.52829 5.64622 1.88207
539 1 1 8.46932 5.64622 2.82311
504 1 1 9.41036 4.70518 2.82311
541 1 1 9.41036 5.64622 1.88207
502 1 1 10.3514 4.70518 1.88207
508 1 1 11.2924 4.70518 2.82311
543 1 1 10.3514 5.64622 2.82311
545 1 1 11.2924 5.64622 1.88207
506 1 1 12.2335 4.70518 1.88207
547 1 1 12.2335 5.64622 2.82311
510 1 1 14.1155 4.70518 1.88207
512 1 1 13.1745 4.70518 2.82311
549 1 1 13.1745 5.64622 1.88207
551 1 1 14.1155 5.64622 2.82311
516 1 1 15.0566 4.70518 2.82311
553 1 1 15.0566 5.64622 1.88207
514 1 1 15.9976 4.70518 1.88207
520 1 1 16.9386 4.70518 2.82311
555 1 1 15.9976 5.64622 2.82311
557 1 1 16.9386 5.64622 1.88207
518 1 1 17.8797 4.70518 1.88207
559 1 1 17.8797 5.64622 2.82311
522 1 1 0.941036 6.58725 1.88207
524 1 1 0 6.58725 2.82311
526 1 1 2.82311 6.58725 1.88207
528 1 1 1.88207 6.58725 2.82311
532 1 1 3.76414 6.58725 2.82311
530 1 1 4.70518 6.58725 1.88207
536 1 1 5.64622 6.58725 2.82311
534 1 1 6.58725 6.58725 1.88207
538 1 1 8.46932 6.58725 1.88207
540 1 1 7.52829 6.58725 2.82311
544 1 1 9.41036 6.58725 2.82311
542 1 1 10.3514 6.58725 1.88207
548 1 1 11.2924 6.58725 2.82311
546 1 1 12.2335 6.58725 1.88207
550 1 1 14.1155 6.58725 1.88207
552 1 1 13.1745 6.58725 2.82311
556 1 1 15.0566 6.58725 2.82311
554 1 1 15.9976 6.58725 1.88207
560 1 1 16.9386 6.58725 2.82311
558 1 1 17.8797 6.58725 1.88207
561 1 1 0 7.52829 1.88207
562 1 1 0.941036 8.46932 1.88207
563 1 1 0.941036 7.52829 2.82311
564 1 1 0 8.46932 2.82311
565 1 1 1.88207 7.52829 1.88207
566 1 1 2.82311 8.46932 1.88207
567 1 1 2.82311 7.52829 2.82311
568 1 1 1.88207 8.46932 2.82311
569 1 1 3.76414 7.52829 1.88207
572 1 1 3.76414 8.46932 2.82311
570 1 1 4.70518 8.46932 1.88207
571 1 1 4.70518 7.52829 2.82311
573 1 1 5.64622 7.52829 1.88207
576 1 1 5.64622 8.46932 2.82311
574 1 1 6.58725 8.46932 1.88207
575 1 1 6.58725 7.52829 2.82311
577 1 1 7.52829 7.52829 1.88207
578 1 1 8.46932 8.46932 1.88207
579 1 1 8.46932 7.52829 2.82311
580 1 1 7.52829 8.46932 2.82311
581 1 1 9.41036 7.52829 1.88207
584 1 1 9.41036 8.46932 2.82311
582 1 1 10.3514 8.46932 1.88207
583 1 1 10.3514 7.52829 2.82311
585 1 1 11.2924 7.52829 1.88207
588 1 1 11.2924 8.46932 2.82311
586 1 1 12.2335 8.46932 1.88207
587 1 1 12.2335 7.52829 2.82311
589 1 1 13.1745 7.52829 1.88207
590 1 1 14.1155 8.46932 1.88207
591 1 1 14.1155 7.52829 2.82311
592 1 1 13.1745 8.46932 2.82311
593 1 1 15.0566 7.52829 1.88207
596 1 1 15.0566 8.46932 2.82311
594 1 1 15.9976 8.46932 1.88207
595 1 1 15.9976 7.52829 2.82311
597 1 1 16.9386 7.52829 1.88207
600 1 1 16.9386 8.46932 2.82311
598 1 1 17.8797 8.46932 1.88207
599 1 1 17.8797 7.52829 2.82311
601 1 1 0 9.41036 1.88207
603 1 1 0.941036 9.41036 2.82311
605 1 1 1.88207 9.41036 1.88207
607 1 1 2.82311 9.41036 2.82311
609 1 1 3.76414 9.41036 1.88207
611 1 1 4.70518 9.41036 2.82311
613 1 1 5.64622 9.41036 1.88207
615 1 1 6.58725 9.41036 2.82311
617 1 1 7.52829 9.41036 1.88207
619 1 1 8.46932 9.41036 2.82311
621 1 1 9.41036 9.41036 1.88207
623 1 1 10.3514 9.41036 2.82311
625 1 1 11.2924 9.41036 1.88207
627 1 1 12.2335 9.41036 2.82311
629 1 1 13.1745 9.41036 1.88207
631 1 1 14.1155 9.41036 2.82311
633 1 1 15.0566 9.41036 1.88207
635 1 1 15.9976 9.41036 2.82311
637 1 1 16.9386 9.41036 1.88207
639 1 1 17.8797 9.41036 2.82311
602 1 1 0.941036 10.3514 1.88207
604 1 1 0 10.3514 2.82311
641 1 1 0 11.2924 1.88207
643 1 1 0.941036 11.2924 2.82311
606 1 1 2.82311 10.3514 1.88207
608 1 1 1.88207 10.3514 2.82311
645 1 1 1.88207 11.2924 1.88207
647 1 1 2.82311 11.2924 2.82311
612 1 1 3.76414 10.3514 2.82311
649 1 1 3.76414 11.2924 1.88207
610 1 1 4.70518 10.3514 1.88207
616 1 1 5.64622 10.3514 2.82311
651 1 1 4.70518 11.2924 2.82311
653 1 1 5.64622 11.2924 1.88207
614 1 1 6.58725 10.3514 1.88207
655 1 1 6.58725 11.2924 2.82311
618 1 1 8.46932 10.3514 1.88207
620 1 1 7.52829 10.3514 2.82311
657 1 1 7.52829 11.2924 1.88207
659 1 1 8.46932 11.2924 2.82311
624 1 1 9.41036 10.3514 2.82311
661 1 1 9.41036 11.2924 1.88207
622 1 1 10.3514 10.3514 1.88207
628 1 1 11.2924 10.3514 2.82311
663 1 1 10.3514 11.2924 2.82311
665 1 1 11.2924 11.2924 1.88207
626 1 1 12.2335 10.3514 1.88207
667 1 1 12.2335 11.2924 2.82311
630 1 1 14.1155 10.3514 1.88207
632 1 1 13.1745 10.3514 2.82311
669 1 1 13.1745 11.2924 1.88207
671 1 1 14.1155 11.2924 2.82311
636 1 1 15.0566 10.3514 2.82311
673 1 1 15.0566 11.2924 1.88207
634 1 1 15.9976 10.3514 1.88207
640 1 1 16.9386 10.3514 2.82311
675 1 1 15.9976 11.2924 2.82311
677 1 1 16.9386 11.2924 1.88207
638 1 1 17.8797 10.3514 1.88207
679 1 1 17.8797 11.2924 2.82311
642 1 1 0.941036 12.2335 1.88207
644 1 1 0 12.2335 2.82311
646 1 1 2.82311 12.2335 1.88207
648 1 1 1.88207 12.2335 2.82311
652 1 1 3.76414 12.2335 2.82311
650 1 1 4.70518 12.2335 1.88207
656 1 1 5.64622 12.2335 2.82311
654 1 1 6.58725 12.2335 1.88207
658 1 1 8.46932 12.2335 1.88207
660 1 1 7.52829 12.2335 2.82311
664 1 1 9.41036 12.2335 2.82311
662 1 1 10.3514 12.2335 1.88207
668 1 1 11.2924 12.2335 2.82311
666 1 1 12.2335 12.2335 1.88207
670 1 1 14.1155 12.2335 1.88207
672 1 1 13.1745 12.2335 2.82311
676 1 1 15.0566 12.2335 2.82311
674 1 1 15.9976 12.2335 1.88207
680 1 1 16.9386 12.2335 2.82311
678 1 1 17.8797 12.2335 1.88207
681 1 1 0 13.1745 1.88207
682 1 1 0.941036 14.1155 1.88207
683 1 1 0.941036 13.1745 2.82311
684 1 1 0 14.1155 2.82311
685 1 1 1.88207 13.1745 1.88207
686 1 1 2.82311 14.1155 1.88207
687 1 1 2.82311 13.1745 2.82311
688 1 1 1.88207 14.1155 2.82311
689 1 1 3.76414 13.1745 1.88207
692 1 1 3.76414 14.1155 2.82311
690 1 1 4.70518 14.1155 1.88207
691 1 1 4.70518 13.1745 2.82311
693 1 1 5.64622 13.1745 1.88207
696 1 1 5.64622 14.1155 2.82311
694 1 1 6.58725 14.1155 1.88207
695 1 1 6.58725 13.1745 2.82311
697 1 1 7.52829 13.1745 1.88207
698 1 1 8.46932 14.1155 1.88207
699 1 1 8.46932 13.1745 2.82311
700 1 1 7.52829 14.1155 2.82311
701 1 1 9.41036 13.1745 1.88207
704 1 1 9.41036 14.1155 2.82311
702 1 1 10.3514 14.1155 1.88207
703 1 1 10.3514 13.1745 2.82311
705 1 1 11.2924 13.1745 1.88207
708 1 1 11.2924 14.1155 2.82311
706 1 1 12.2335 14.1155 1.88207
707 1 1 12.2335 13.1745 2.82311
709 1 1 13.1745 13.1745 1.88207
710 1 1 14.1155 14.1155 1.88207
711 1 1 14.1155 13.1745 2.82311
712 1 1 13.1745 14.1155 2.82311
713 1 1 15.0566 13.1745 1.88207
716 1 1 15.0566 14.1155 2.82311
714 1 1 15.9976 14.1155 1.88207
715 1 1 15.9976 13.1745 2.82311
717 1 1 16.9386 13.1745 1.88207
720 1 1 16.9386 14.1155 2.82311
718 1 1 17.8797 14.1155 1.88207
719 1 1 17.8797 13.1745 2.82311
721 1 1 0 15.0566 1.88207
723 1 1 0.941036 15.0566 2.82311
725 1 1 1.88207 15.0566 1.88207
727 1 1 2.82311 15.0566 2.82311
729 1 1 3.76414 15.0566 1.88207
731 1 1 4.70518 15.0566 2.82311
733 1 1 5.64622 15.0566 1.88207
735 1 1 6.58725 15.0566 2.82311
737 1 1 7.52829 15.0566 1.88207
739 1 1 8.46932 15.0566 2.82311
741 1 1 9.41036 15.0566 1.88207
743 1 1 10.3514 15.0566 2.82311
745 1 1 11.2924 15.0566 1.88207
747 1 1 12.2335 15.0566 2.82311
749 1 1 13.1745 15.0566 1.88207
751 1 1 14.1155 15.0566 2.82311
753 1 1 15.0566 15.0566 1.88207
755 1 1 15.9976 15.0566 2.82311
757 1 1 16.9386 15.0566 1.88207
759 1 1 17.8797 15.0566 2.82311
722 1 1 0.941036 15.9976 1.88207
724 1 1 0 15.9976 2.82311
761 1 1 0 16.9386 1.88207
763 1 1 0.941036 16.9386 2.82311
726 1 1 2.82311 15.9976 1.88207
728 1 1 1.88207 15.9976 2.82311
765 1 1 1.88207 16.9386 1.88207
767 1 1 2.82311 16.9386 2.82311
732 1 1 3.76414 15.9976 2.82311
769 1 1 3.76414 16.9386 1.88207
730 1 1 4.70518 15.9976 1.88207
736 1 1 5.64622 15.9976 2.82311
771 1 1 4.70518 16.9386 2.82311
773 1 1 5.64622 16.9386 1.88207
734 1 1 6.58725 15.9976 1.88207
775 1 1 6.58725 16.9386 2.82311
738 1 1 8.46932 15.9976 1.88207
740 1 1 7.52829 15.9976 2.82311
777 1 1 7.52829 16.9386 1.88207
779 1 1 8.46932 16.9386 2.82311
744 1 1 9.41036 15.9976 2.82311
781 1 1 9.41036 16.9386 1.88207
742 1 1 10.3514 15.9976 1.88207
748 1 1 11.2924 15.9976 2.82311
783 1 1 10.3514 16.9386 2.82311
785 1 1 11.2924 16.9386 1.88207
746 1 1 12.2335 15.9976 1.88207
787 1 1 12.2335 16.9386 2.82311
750 1 1 14.1155 15.9976 1.88207
752 1 1 13.1745 15.9976 2.82311
789 1 1 13.1745 16.9386 1.88207
791 1 1 14.1155 16.9386 2.82311
756 1 1 15.0566 15.9976 2.82311
793 1 1 15.0566 16.9386 1.88207
754 1 1 15.9976 15.9976 1.88207
760 1 1 16.9386 15.9976 2.82311
795 1 1 15.9976 16.9386 2.82311
797 1 1 16.9386 16.9386 1.88207
758 1 1 17.8797 15.9976 1.88207
799 1 1 17.8797 16.9386 2.82311
762 1 1 0.941036 17.8797 1.88207
764 1 1 0 17.8797 2.82311
766 1 1 2.82311 17.8797 1.88207
768 1 1 1.88207 17.8797 2.82311
772 1 1 3.76414 17.8797 2.82311
770 1 1 4.70518 17.8797 1.88207
776 1 1 5.64622 17.8797 2.82311
774 1 1 6.58725 17.8797 1.88207
778 1 1 8.46932 17.8797 1.88207
780 1 1 7.52829 17.8797 2.82311
784 1 1 9.41036 17.8797 2.82311
782 1 1 10.3514 17.8797 1.88207
788 1 1 11.2924 17.8797 2.82311
786 1 1 12.2335 17.8797 1.88207
790 1 1 14.1155 17.8797 1.88207
792 1 1 13.1745 17.8797 2.82311
796 1 1 15.0566 17.8797 2.82311
794 1 1 15.9976 17.8797 1.88207
800 1 1 16.9386 17.8797 2.82311
798 1 1 17.8797 17.8797 1.88207
801 1 1 0 0 3.76414
802 1 1 0.941036 0.941036 3.76414
805 1 1 1.88207 0 3.76414
806 1 1 2.82311 0.941036 3.76414
809 1 1 3.76414 0 3.76414
810 1 1 4.70518 0.941036 3.76414
813 1 1 5.64622 0 3.76414
814 1 1 6.58725 0.941036 3.76414
817 1 1 7.52829 0 3.76414
818 1 1 8.46932 0.941036 3.76414
821 1 1 9.41036 0 3.76414
822 1 1 10.3514 0.941036 3.76414
825 1 1 11.2924 0 3.76414
826 1 1 12.2335 0.941036 3.76414
829 1 1 13.1745 0 3.76414
830 1 1 14.1155 0.941036 3.76414
833 1 1 15.0566 0 3.76414
834 1 1 15.9976 0.941036 3.76414
837 1 1 16.9386 0 3.76414
838 1 1 17.8797 0.941036 3.76414
841 1 1 0 1.88207 3.76414
842 1 1 0.941036 2.82311 3.76414
845 1 1 1.88207 1.88207 3.76414
846 1 1 2.82311 2.82311 3.76414
849 1 1 3.76414 1.88207 3.76414
850 1 1 4.70518 2.82311 3.76414
853 1 1 5.64622 1.88207 3.76414
854 1 1 6.58725 2.82311 3.76414
857 1 1 7.52829 1.88207 3.76414
858 1 1 8.46932 2.82311 3.76414
861 1 1 9.41036 1.88207 3.76414
862 1 1 10.3514 2.82311 3.76414
865 1 1 11.2924 1.88207 3.76414
866 1 1 12.2335 2.82311 3.76414
869 1 1 13.1745 1.88207 3.76414
870 1 1 14.1155 2.82311 3.76414
873 1 1 15.0566 1.88207 3.76414
874 1 1 15.9976 2.82311 3.76414
877 1 1 16.9386 1.88207 3.76414
878 1 1 17.8797 2.82311 3.76414
881 1 1 0 3.76414 3.76414
885 1 1 1.88207 3.76414 3.76414
889 1 1 3.76414 3.76414 3.76414
893 1 1 5.64622 3.76414 3.76414
897 1 1 7.52829 3.76414 3.76414
901 1 1 9.41036 3.76414 3.76414
905 1 1 11.2924 3.76414 3.76414
909 1 1 13.1745 3.76414 3.76414
913 1 1 15.0566 3.76414 3.76414
917 1 1 16.9386 3.76414 3.76414
882 1 1 0.941036 4.70518 3.76414
921 1 1 0 5.64622 3.76414
886 1 1 2.82311 4.70518 3.76414
925 1 1 1.88207 5.64622 3.76414
929 1 1 3.76414 5.64622 3.76414
890 1 1 4.70518 4.70518 3.76414
933 1 1 5.64622 5.64622 3.76414
894 1 1 6.58725 4.70518 3.76414
898 1 1 8.46932 4.70518 3.76414
937 1 1 7.52829 5.64622 3.76414
941 1 1 9.41036 5.64622 3.76414
902 1 1 10.3514 4.70518 3.76414
945 1 1 11.2924 5.64622 3.76414
906 1 1 12.2335 4.70518 3.76414
910 1 1 14.1155 4.70518 3.76414
949 1 1 13.1745 5.64622 3.76414
953 1 1 15.0566 5.64622 3.76414
914 1 1 15.9976 4.70518 3.76414
957 1 1 16.9386 5.64622 3.76414
918 1 1 17.8797 4.70518 3.76414
922 1 1 0.941036 6.58725 3.76414
926 1 1 2.82311 6.58725 3.76414
930 1 1 4.70518 6.58725 3.76414
934 1 1 6.58725 6.58725 3.76414
938 1 1 8.46932 6.58725 3.76414
942 1 1 10.3514 6.58725 3.76414
946 1 1 12.2335 6.58725 3.76414
950 1 1 14.1155 6.58725 3.76414
954 1 1 15.9976 6.58725 3.76414
958 1 1 17.8797 6.58725 3.76414
961 1 1 0 7.52829 3.76414
962 1 1 0.941036 8.46932 3.76414
965 1 1 1.88207 7.52829 3.76414
966 1 1 2.82311 8.46932 3.76414
969 1 1 3.76414 7.52829 3.76414
970 1 1 4.70518 8.46932 3.76414
973 1 1 5.64622 7.52829 3.76414
974 1 1 6.58725 8.46932 3.76414
977 1 1 7.52829 7.52829 3.76414
978 1 1 8.46932 8.46932 3.76414
981 1 1 9.41036 7.52829 3.76414
982 1 1 10.3514 8.46932 3.76414
985 1 1 11.2924 7.52829 3.76414
986 1 1 12.2335 8.46932 3.76414
989 1 1 13.1745 7.52829 3.76414
990 1 1 14.1155 8.46932 3.76414
993 1 1 15.0566 7.52829 3.76414
994 1 1 15.9976 8.46932 3.76414
997 1 1 16.9386 7.52829 3.76414
998 1 1 17.8797 8.46932 3.76414
1001 1 1 0 9.41036 3.76414
1005 1 1 1.88207 9.41036 3.76414
1009 1 1 3.76414 9.41036 3.76414
1013 1 1 5.64622 9.41036 3.76414
1017 1 1 7.52829 9.41036 3.76414
1021 1 1 9.41036 9.41036 3.76414
1025 1 1 11.2924 9.41036 3.76414
1029 1 1 13.1745 9.41036 3.76414
1033 1 1 15.0566 9.41036 3.76414
1037 1 1 16.9386 9.41036 3.76414
1002 1 1 0.941036 10.3514 3.76414
1041 1 1 0 11.2924 3.76414
1006 1 1 2.82311 10.3514 3.76414
1045 1 1 1.88207 11.2924 3.76414
1049 1 1 3.76414 11.2924 3.76414
1010 1 1 4.70518 10.3514 3.76414
1053 1 1 5.64622 11.2924 3.76414
1014 1 1 6.58725 10.3514 3.76414
1018 1 1 8.46932 10.3514 3.76414
1057 1 1 7.52829 11.2924 3.76414
1061 1 1 9.41036 11.2924 3.76414
1022 1 1 10.3514 10.3514 3.76414
1065 1 1 11.2924 11.2924 3.76414
1026 1 1 12.2335 10.3514 3.76414
1030 1 1 14.1155 10.3514 3.76414
1069 1 1 13.1745 11.2924 3.76414
1073 1 1 15.0566 11.2924 3.76414
1034 1 1 15.9976 10.3514 3.76414
1077 1 1 16.9386 11.2924 3.76414
1038 1 1 17.8797 10.3514 3.76414
1042 1 1 0.941036 12.2335 3.76414
1046 1 1 2.82311 12.2335 3.76414
1050 1 1 4.70518 12.2335 3.76414
1054 1 1 6.58725 12.2335 3.76414
1058 1 1 8.46932 12.2335 3.76414
1062 1 1 10.3514 12.2335 3.76414
1066 1 1 12.2335 12.2335 3.76414
1070 1 1 14.1155 12.2335 3.76414
1074 1 1 15.9976 12.2335 3.76414
1078 1 1 17.8797 12.2335 3.76414
1081 1 1 0 13.1745 3.76414
1082 1 1 0.941036 14.1155 3.76414
1085 1 1 1.88207 13.1745 3.76414
1086 1 1 2.82311 14.1155 3.76414
1089 1 1 3.76414 13.1745 3.76414
1090 1 1 4.70518 14.1155 3.76414
1093 1 1 5.64622 13.1745 3.76414
1094 1 1 6.58725 14.1155 3.76414
1097 1 1 7.52829 13.1745 3.76414
1098 1 1 8.46932 14.1155 3.76414
1101 1 1 9.41036 13.1745 3.76414
1102 1 1 10.3514 14.1155 3.76414
1105 1 1 11.2924 13.1745 3.76414
1106 1 1 12.2335 14.1155 3.76414
1109 1 1 13.1745 13.1745 3.76414
1110 1 1 14.1155 14.1155 3.76414
1113 1 1 15.0566 13.1745 3.76414
1114 1 1 15.9976 14.1155 3.76414
1117 1 1 16.9386 13.1745 3.76414
1118 1 1 17.8797 14.1155 3.76414
1121 1 1 0 15.0566 3.76414
1125 1 1 1.88207 15.0566 3.76414
1129 1 1 3.76414 15.0566 3.76414
1133 1 1 5.64622 15.0566 3.76414
1137 1 1 7.52829 15.0566 3.76414
1141 1 1 9.41036 15.0566 3.76414
1145 1 1 11.2924 15.0566 3.76414
1149 1 1 13.1745 15.0566 3.76414
1153 1 1 15.0566 15.0566 3.76414
1157 1 1 16.9386 15.0566 3.76414
1122 1 1 0.941036 15.9976 3.76414
1161 1 1 0 16.9386 3.76414
1126 1 1 2.82311 15.9976 3.76414
1165 1 1 1.88207 16.9386 3.76414
1169 1 1 3.76414 16.9386 3.76414
1130 1 1 4.70518 15.9976 3.76414
1173 1 1 5.64622 16.9386 3.76414