ITEM: TIMESTEP
2100
ITEM: NUMBER OF ATOMS
8000
ITEM: BOX BOUNDS pp pp pp
0.0000000000000000e+00 1.8820720577620570e+01
0.0000000000000000e+00 1.8820720577620570e+01
0.0000000000000000e+00 3.7641441155241139e+01
ITEM: ATOMS id mass type x y z
761 1 1 0.275722 18.8061 0.566206
7640 1 1 18.7874 1.36693 0.976214
7651 1 1 3.50872 18.3712 0.291924
732 1 1 4.15164 1.2548 0.431653
408 1 1 3.27774 0.590447 0.366473
1301 1 1 5.5772 0.788087 0.859294
770 1 1 6.80817 18.4825 0.870147
7701 1 1 6.2946 0.283629 37.0924
377 1 1 8.68552 18.6337 1.27981
7620 1 1 7.38038 18.7503 37.286
17 1 1 6.94766 1.35947 1.31691
57 1 1 9.18632 0.189742 0.215048
20 1 1 9.69821 1.80862 1.53762
7984 1 1 10.5665 0.414034 0.987783
26 1 1 12.1417 1.1544 0.433473
746 1 1 13.366 0.661662 0.465954
511 1 1 16.1164 0.754288 1.48504
835 1 1 16.1785 1.71215 0.805271
324 1 1 17.4152 1.13452 0.821043
798 1 1 17.9039 0.456376 1.7753
762 1 1 0.709629 2.06092 -0.00632537
7639 1 1 1.42387 2.76242 37.2204
50 1 1 4.35393 2.214 0.257805
41 1 1 3.2873 1.95026 1.21175
37 1 1 3.32232 1.56745 37.2556
6 1 1 5.31105 2.39057 0.473634
376 1 1 6.28478 1.74672 0.37667
7611 1 1 6.67116 2.0472 1.98467
765 1 1 6.21488 2.95805 0.177905
380 1 1 6.01497 2.80022 1.35299
93 1 1 7.75202 2.20146 1.14092
7698 1 1 8.6863 2.85461 0.709356
780 1 1 9.69206 2.80388 1.24433
28 1 1 9.21465 1.85206 0.530004
7627 1 1 10.4205 1.88716 0.680424
422 1 1 10.7518 2.9394 1.2415
425 1 1 10.464 2.56423 37.3524
65 1 1 12.2281 3.08372 0.510216
387 1 1 11.576 2.16635 0.785081
7626 1 1 12.4959 2.0352 1.55518
79 1 1 13.1398 2.58703 0.998862
786 1 1 14.2049 0.996106 1.10209
7636 1 1 13.6121 1.81292 0.28031
7986 1 1 14.7001 2.51497 1.70396
1196 1 1 15.6823 2.77494 0.861172
109 1 1 15.0653 0.891714 0.556798
439 1 1 17.4643 2.04576 1.45533
402 1 1 16.918 3.24894 0.194323
77 1 1 17.3964 1.65264 37.1218
479 1 1 18.6545 2.33587 1.48522
441 1 1 1.16441 4.50737 1.08392
806 1 1 1.48892 3.9469 0.0228583
127 1 1 2.33909 4.90109 0.512283
885 1 1 3.50126 3.10009 0.783686
368 1 1 3.9381 3.08376 36.944
96 1 1 4.45272 3.64202 37.5864
533 1 1 5.26691 3.50865 0.837578
137 1 1 6.84303 3.97482 0.233718
143 1 1 7.27282 2.97686 0.245929
461 1 1 9.08549 3.60098 1.16869
7982 1 1 11.0895 3.92391 0.486484
149 1 1 12.5115 4.10644 0.865587
516 1 1 11.9468 3.53681 37.2939
7591 1 1 13.9084 3.90034 37.5996
476 1 1 13.8599 4.65871 1.28522
506 1 1 14.1939 2.78615 0.794223
7996 1 1 17.3746 4.162 37.0513
117 1 1 15.8762 3.64271 0.461675
7603 1 1 0.563317 3.33983 37.4303
518 1 1 18.3455 2.96561 37.5379
7359 1 1 17.5379 4.07029 1.072
481 1 1 0.0129123 5.35065 0.710632
808 1 1 1.17168 5.34386 0.431674
49 1 1 3.62329 5.57604 1.72273
573 1 1 3.43619 4.22354 0.93485
169 1 1 3.71577 5.74062 0.360637
456 1 1 5.77807 4.04465 0.0378575
7697 1 1 4.28266 4.81684 1.21992
7723 1 1 5.77843 5.50119 0.404803
534 1 1 6.57968 5.87592 1.32989
135 1 1 6.89553 5.4479 37.4743
934 1 1 7.61735 5.49962 0.570061
219 1 1 7.60605 4.54666 0.501657
1309 1 1 8.7125 4.71634 0.402646
7423 1 1 9.03714 5.77735 1.15625
7672 1 1 10.3967 4.91234 0.0111318
581 1 1 12.2391 5.88959 1.01022
538 1 1 13.1053 5.30191 1.47224
547 1 1 12.5257 4.40931 37.3273
72 1 1 14.8186 4.38183 0.226712
7756 1 1 14.8664 4.863 1.08847
80 1 1 16.3315 4.31892 1.45177
110 1 1 16.414 5.49332 0.380769
760 1 1 18.396 4.10243 0.43047
559 1 1 18.0715 5.03731 1.16281
159 1 1 0.557263 6.1914 0.0512363
125 1 1 1.12444 6.99787 0.641401
7729 1 1 2.70875 5.754 0.991201
44 1 1 2.15757 7.08848 0.0359113
131 1 1 3.58264 6.60461 0.912557
7700 1 1 4.78512 6.64404 1.09697
94 1 1 5.73391 6.53884 0.416321
7736 1 1 6.79603 7.0888 1.20134
7699 1 1 7.9946 7.10772 1.15262
217 1 1 9.51997 7.19566 0.917118
142 1 1 8.78585 6.98828 0.192965
145 1 1 10.001 6.19439 0.672132
583 1 1 10.8561 6.59182 37.4534
100 1 1 12.6015 6.24496 0.0984795
502 1 1 11.9106 7.3276 37.3484
177 1 1 12.9806 6.66185 1.13519
150 1 1 14.2025 7.0204 1.7811
106 1 1 13.4122 5.48257 37.4076
231 1 1 14.9828 5.92304 0.984482
510 1 1 18.0804 6.92806 1.18394
7798 1 1 15.7213 6.81366 0.925241
7716 1 1 16.4868 6.545 36.9017
153 1 1 18.7417 7.45805 1.95097
195 1 1 0.325213 7.90433 0.54288
526 1 1 3.06002 8.1411 37.1936
1323 1 1 1.88053 7.80663 0.83508
524 1 1 3.91923 8.62882 37.5397
930 1 1 3.65889 7.9707 1.31343
529 1 1 4.18959 7.39276 0.668383
1401 1 1 4.77909 8.35247 0.252664
138 1 1 5.71325 8.14503 1.50837
176 1 1 6.33033 7.47773 37.5026
1461 1 1 9.08495 7.94212 0.267473
527 1 1 7.17951 8.58132 1.05921
178 1 1 8.32869 8.16972 1.14618
973 1 1 10.4113 8.71469 0.453878
942 1 1 11.6682 6.29043 1.91002
498 1 1 10.4578 7.22605 0.576801
224 1 1 10.975 7.82827 37.4503
633 1 1 12.8693 7.93513 0.918757
1067 1 1 11.6668 8.11641 1.12311
187 1 1 13.8035 7.74693 1.06918
989 1 1 13.5389 8.56657 1.64266
557 1 1 16.0833 7.27974 37.6264
552 1 1 14.4974 8.13988 1.78016
107 1 1 15.1289 8.07213 0.114155
7748 1 1 14.6782 7.15301 0.413387
594 1 1 16.9006 8.11473 0.737651
7758 1 1 17.3569 7.95766 1.67704
593 1 1 17.1611 6.86949 0.942332
238 1 1 18.0683 8.12127 0.533279
7757 1 1 0.030512 8.93337 37.3512
4 1 1 18.7568 8.53583 1.30228
7769 1 1 1.1257 8.91617 0.250998
925 1 1 2.95693 8.66376 0.591754
7808 1 1 3.00175 9.86113 1.28377
7880 1 1 1.65264 9.86262 0.827459
167 1 1 4.01868 10.3911 37.4204
7734 1 1 7.16024 9.36551 0.165587
216 1 1 6.98376 9.81675 1.15022
7772 1 1 6.00176 8.93061 0.902079
218 1 1 9.48136 9.44726 1.38976
7788 1 1 8.15104 9.78033 0.330814
262 1 1 8.94696 8.95803 0.456196
1109 1 1 10.0345 9.84239 0.567811
585 1 1 12.5406 8.93256 1.52405
578 1 1 12.5157 9.64971 0.60369
665 1 1 12.6329 8.71224 -0.00120834
589 1 1 14.4119 8.57988 0.837388
7432 1 1 13.5189 9.28954 0.709795
230 1 1 14.8304 10.285 2.05826
634 1 1 15.3458 9.59226 0.433807
190 1 1 16.6771 9.36965 0.596078
564 1 1 17.147 9.92664 1.3503
186 1 1 16.0195 10.4269 0.11752
124 1 1 0.0550208 9.46561 0.945942
7796 1 1 17.2536 9.08699 37.2246
7714 1 1 17.7339 8.98001 1.27935
207 1 1 1.39979 11.4572 0.567669
7804 1 1 0.12609 11.0559 1.17405
1003 1 1 2.14875 10.7274 0.829379
163 1 1 3.30286 10.6579 0.481448
645 1 1 3.99786 10.2422 1.74352
652 1 1 4.74696 10.8531 0.484276
290 1 1 5.42536 9.97043 0.744366
613 1 1 5.79722 10.8768 0.27122
1006 1 1 6.94994 10.4043 0.302252
1010 1 1 5.88028 10.6055 1.40805
256 1 1 8.02839 10.8953 0.779677
7827 1 1 10.2289 11.0105 0.458145
580 1 1 9.91405 10.7016 1.4161
7780 1 1 9.11117 10.2579 0.694288
227 1 1 11.196 10.4331 37.5409
7784 1 1 10.9941 11.6112 1.2649
308 1 1 12.6061 10.8964 0.617246
982 1 1 13.3912 11.7426 1.17326
626 1 1 13.6504 10.4679 0.698363
7428 1 1 13.2078 11.7252 0.00916789
200 1 1 15.8372 10.7257 1.15479
233 1 1 18.0093 10.3041 0.954329
7879 1 1 18.7857 12.8172 0.401152
7835 1 1 0.472545 13.0946 1.81489
204 1 1 2.9434 11.628 0.733944
962 1 1 1.60504 12.7789 1.48309
7968 1 1 2.05783 12.3653 0.366311
337 1 1 4.68377 12.5529 1.70274
7856 1 1 5.53501 11.8952 1.02972
7811 1 1 7.46313 11.5834 0.119508
7541 1 1 8.78862 12.4182 1.62055
261 1 1 9.4232 12.8154 0.144375
7468 1 1 10.4291 11.9703 0.130466
705 1 1 11.1551 12.5256 1.84346
7829 1 1 12.5818 12.8089 0.575093
301 1 1 11.4732 11.622 0.287401
7868 1 1 13.5359 12.5914 0.287104
268 1 1 14.2417 11.3574 0.739063
595 1 1 14.5849 12.2838 0.265171
639 1 1 17.039 12.9406 0.108694
1040 1 1 16.887 12.9552 1.361
393 1 1 17.7128 12.1742 0.570669
7924 1 1 1.05204 13.2229 0.487059
397 1 1 0.0501231 14.312 1.79892
7442 1 1 18.7383 14.028 0.406262
358 1 1 3.0461 13.8154 0.544093
7525 1 1 1.79044 14.414 0.772719
730 1 1 3.11106 14.2778 36.9603
288 1 1 3.74228 13.25 0.923362
725 1 1 5.00707 13.5158 0.828069
1532 1 1 5.84369 14.4456 1.2511
333 1 1 6.99302 12.563 0.587127
344 1 1 6.79937 14.0869 0.813565
697 1 1 7.8213 14.0606 0.474277
660 1 1 9.32148 13.405 1.08314
264 1 1 9.17774 14.2903 0.379127
655 1 1 11.8776 13.8971 1.41161
257 1 1 10.8756 12.9141 0.418797
7864 1 1 11.0296 13.4171 2.03319
379 1 1 11.7978 13.4054 0.279194
747 1 1 13.9594 14.2041 0.724177
676 1 1 14.1491 12.9175 1.08962
666 1 1 13.0005 13.6085 1.14649
675 1 1 12.7146 14.2122 37.5083
7876 1 1 15.058 13.5804 37.429
278 1 1 17.8161 14.3635 0.883536
7440 1 1 16.6997 13.8582 0.638717
758 1 1 1.00424 15.0316 1.34463
7888 1 1 2.57942 15.2689 0.757003
776 1 1 3.69018 15.0946 0.126351
300 1 1 4.75093 14.5313 0.642079
370 1 1 4.4916 15.4613 0.969389
721 1 1 5.53849 15.2921 0.649365
1173 1 1 4.45302 14.5178 1.71423
1573 1 1 6.40087 15.0108 0.0789929
7901 1 1 7.50089 16.0597 0.413872
7937 1 1 6.10597 15.8336 1.85609
259 1 1 8.56961 14.3948 1.57051
700 1 1 7.76545 14.8582 1.10244
21 1 1 9.90033 15.4662 37.6242
373 1 1 8.84046 15.3759 0.626495
391 1 1 11.9022 15.5513 0.351831
258 1 1 10.2935 14.5758 0.375445
1145 1 1 11.6363 14.5596 0.60164
7543 1 1 12.8003 15.1778 0.960745
7914 1 1 12.9856 15.9573 37.6076
706 1 1 14.667 15.0537 1.25607
670 1 1 14.9774 14.8138 37.5604
745 1 1 13.8955 15.8251 0.604076
305 1 1 15.5398 14.6713 1.02925
7561 1 1 17.0933 15.0251 0.621276
793 1 1 18.0775 15.5053 0.614084
7635 1 1 0.439196 16.2112 0.92208
753 1 1 18.3105 16.1119 1.51523
438 1 1 1.04997 17.0264 37.4324
7887 1 1 2.35753 16.7003 0.125959
399 1 1 1.50698 15.8654 0.674512
1125 1 1 2.70159 16.0583 1.53542
327 1 1 3.17698 16.0051 0.311469
7573 1 1 5.10947 16.283 0.291996
85 1 1 4.20589 16.4992 0.73524
7971 1 1 5.10333 16.2318 1.44401
7615 1 1 6.25979 16.3725 0.737282
340 1 1 6.8652 17.009 1.57457
51 1 1 8.67321 16.5327 1.00694
385 1 1 9.81449 17.3772 1.70214
388 1 1 9.58087 16.6674 0.236
381 1 1 10.7234 17.1169 1.06096
304 1 1 10.4933 15.7257 1.16704
7983 1 1 10.6787 16.3231 0.260877
784 1 1 12.8005 16.3313 1.11621
792 1 1 12.7066 17.56 1.16521
353 1 1 13.6526 16.852 0.741599
752 1 1 16.344 15.9741 -0.00545382
6720 1 1 15.4003 15.9934 0.47399
7478 1 1 14.9133 17.5713 0.765243
789 1 1 15.7249 16.9224 0.276125
795 1 1 16.7081 16.149 0.924873
40 1 1 17.8707 17.1821 0.666249
319 1 1 1.30716 17.423 0.77163
754 1 1 0.195632 17.7082 0.401286
7608 1 1 1.31579 18.5602 0.38874
731 1 1 2.26966 18.3189 37.4612
405 1 1 2.19176 1.05322 0.481931
321 1 1 2.16266 18.2795 0.962544
363 1 1 3.83019 17.5315 0.868989
7215 1 1 6.1157 18.2451 0.137026
7610 1 1 5.14982 18.668 1.07938
60 1 1 7.64054 18.4096 1.54745
29 1 1 7.66475 17.8871 0.610837
744 1 1 9.71465 18.6181 1.64718
1144 1 1 9.09528 17.5909 0.681198
67 1 1 10.0993 18.0003 0.356658
824 1 1 12.0585 18.0621 1.73194
785 1 1 11.6467 17.8156 0.829858
829 1 1 13.1361 18.5894 1.09661
389 1 1 12.193 16.7505 0.310851
874 1 1 14.2201 18.5004 1.14417
429 1 1 12.7583 18.0601 0.140841
396 1 1 15.2895 18.5717 0.828795
356 1 1 16.8495 0.0624431 0.760898
33 1 1 16.4938 17.6405 1.12056
477 1 1 18.0832 0.168679 0.38314
437 1 1 0.385192 0.499614 2.76261
47 1 1 1.70874 18.7826 3.01828
12 1 1 2.39368 0.437984 1.88011
362 1 1 1.32219 0.76679 1.72528
889 1 1 4.04035 1.67631 1.96782
409 1 1 2.80138 0.864437 2.85673
504 1 1 5.6881 1.81797 2.16922
336 1 1 4.13665 0.773724 1.45806
1122 1 1 4.04122 1.04548 3.046
7616 1 1 6.14052 0.824638 1.78817
774 1 1 7.65383 1.11372 2.47239
779 1 1 6.87313 0.0878184 2.17192
416 1 1 8.78732 18.6831 2.29441
818 1 1 10.6857 0.65348 2.88732
97 1 1 11.5582 1.42801 2.72641
820 1 1 10.25 0.942148 1.88199
63 1 1 11.3404 18.664 2.19066
71 1 1 12.7282 0.75298 1.41041
7632 1 1 12.9363 1.38211 2.51831
827 1 1 13.0148 0.123166 2.48947
431 1 1 13.6351 0.416005 1.74052
834 1 1 15.438 1.57894 1.63008
949 1 1 14.9382 0.448295 1.49289
833 1 1 16.9476 0.907101 2.09055
436 1 1 0.62845 2.2963 3.34674
729 1 1 2.14284 1.6405 1.37724
852 1 1 4.05532 2.65178 2.26145
491 1 1 4.81614 2.11015 1.30432
7628 1 1 8.55486 1.91381 1.81532
14 1 1 7.09873 2.93344 1.66267
417 1 1 9.40425 1.53639 2.63078
15 1 1 8.73046 2.97067 2.58519
937 1 1 10.2738 2.45864 2.19117
426 1 1 11.1064 1.63649 1.71238
876 1 1 10.9895 2.63962 2.77103
838 1 1 13.6544 1.90383 1.64777
68 1 1 12.9125 2.59875 2.51698
517 1 1 15.6622 2.52581 2.02159
480 1 1 15.9795 2.13298 3.08503
474 1 1 17.3096 2.05351 2.68341
917 1 1 18.0541 1.41437 2.30874
881 1 1 18.8245 4.36108 1.419
879 1 1 1.12842 3.74818 1.91062
440 1 1 2.14209 3.82755 0.969583
933 1 1 4.54555 4.44455 2.16271
89 1 1 4.38305 3.01009 1.19183
497 1 1 5.69745 4.54777 0.964976
935 1 1 5.44891 3.41447 2.68526
900 1 1 6.38708 3.55894 2.03851
98 1 1 6.00483 4.28294 3.50337
7 1 1 7.19502 2.85745 2.74262
494 1 1 7.47132 3.90346 1.24528
102 1 1 8.48305 3.80405 1.94634
500 1 1 9.82088 3.50844 2.07692
897 1 1 10.32 3.89707 1.28819
470 1 1 11.1784 3.70382 2.47464
505 1 1 13.4064 3.77601 1.50416
508 1 1 11.6021 3.74075 1.50937
869 1 1 12.1664 3.1667 2.2875
909 1 1 12.7346 4.47824 2.10078
1194 1 1 13.0612 3.86001 3.01982
39 1 1 14.5028 3.55053 1.70229
151 1 1 14.0722 3.03798 2.64231
515 1 1 15.383 4.19323 1.98683
155 1 1 17.041 3.69442 1.84151
1713 1 1 15.7325 4.04731 3.15991
115 1 1 17.6392 2.89295 2.01268
478 1 1 18.4786 3.44438 1.40009
1358 1 1 18.4283 4.04101 2.46665
519 1 1 18.6699 5.19955 2.18845
523 1 1 0.409317 5.86582 2.86606
82 1 1 0.831017 4.93855 2.23358
88 1 1 1.19663 5.65744 1.56192
10 1 1 2.1241 4.99747 1.55187
1290 1 1 1.79064 5.58882 2.41998
899 1 1 2.08572 4.44342 2.38649
53 1 1 5.68978 5.6502 2.61154
575 1 1 6.72095 4.5998 1.04554
179 1 1 7.90187 4.8329 1.90591
1337 1 1 6.61299 5.41039 2.17137
945 1 1 6.94423 4.31875 2.32154
1019 1 1 8.0307 5.28731 2.93833
134 1 1 9.39249 4.48557 2.43229
139 1 1 10.0748 5.56883 2.77492
908 1 1 10.1882 4.89604 1.62813
462 1 1 11.0031 4.77066 2.32922
473 1 1 11.9334 4.48787 2.75742
556 1 1 12.0935 5.33032 2.09873
1270 1 1 11.3585 4.82509 1.28892
554 1 1 14.042 5.24334 2.02492
546 1 1 13.5188 4.86679 2.92575
1316 1 1 16.6336 4.31689 2.74453
120 1 1 17.5315 4.68239 2.29521
7718 1 1 1.02415 6.52811 2.22508
446 1 1 1.84436 6.78595 1.54698
1282 1 1 1.80529 7.81094 2.56469
92 1 1 2.89646 7.17282 1.38099
1327 1 1 4.19864 6.37055 2.18635
570 1 1 5.62381 6.5936 2.26523
7735 1 1 5.7978 7.19866 1.35866
171 1 1 6.96152 6.72378 2.22077
460 1 1 8.15552 6.32993 2.5474
91 1 1 8.09993 6.13362 1.48335
536 1 1 9.05553 6.50523 2.13047
1026 1 1 10.1384 6.64114 1.72528
1774 1 1 9.01137 5.53775 2.1289
7712 1 1 10.7068 5.81792 1.86648
7751 1 1 10.8313 7.4282 1.56039
588 1 1 11.3075 5.78978 2.75362
146 1 1 13.1793 7.05365 2.63448
108 1 1 13.9632 7.8374 2.55982
113 1 1 15.311 5.5683 2.31178
1000 1 1 15.3484 7.55603 2.17652
1317 1 1 15.9714 6.92353 3.12844
196 1 1 16.3854 7.28415 1.92586
7721 1 1 18.7793 6.72382 2.66121
550 1 1 17.7416 7.07116 2.1819
444 1 1 0.214524 6.47372 1.50535
483 1 1 17.5885 5.81238 2.30093
202 1 1 0.880886 7.4823 1.89346
1366 1 1 1.02063 8.02322 3.07016
485 1 1 2.7744 9.0346 1.90838
974 1 1 2.11668 9.00108 2.7677
445 1 1 4.189 7.57663 2.426
532 1 1 4.82399 7.70153 1.47273
607 1 1 5.74574 7.53298 2.43143
970 1 1 6.92797 8.91794 2.11295
215 1 1 7.66156 7.96919 2.26239
7817 1 1 8.79369 8.99935 2.1712
983 1 1 9.76245 8.00452 1.62908
628 1 1 10.4724 8.49803 3.44195
1062 1 1 10.848 8.75458 1.44247
140 1 1 12.026 7.55122 1.83927
596 1 1 13.2174 8.21577 3.3085
1033 1 1 14.3479 6.9128 2.7262
591 1 1 16.2353 8.32058 1.59079
997 1 1 16.8292 8.29603 2.58892
7684 1 1 0.037834 8.18961 3.1298
191 1 1 18.1501 8.26791 2.29098
239 1 1 0.868037 9.06378 1.54117
1329 1 1 0.548078 10.3102 2.26113
1041 1 1 1.14654 9.485 2.45749
164 1 1 2.2819 10.2421 2.14994
637 1 1 1.86092 8.99713 1.23188
566 1 1 3.33113 10.057 2.64793
208 1 1 4.54871 8.65608 1.56958
932 1 1 4.28143 9.83737 2.77032
647 1 1 5.19114 10.3799 2.31289
611 1 1 5.08924 8.49916 2.76487
615 1 1 5.81344 9.39054 2.29999
180 1 1 7.92778 9.70907 2.16371
976 1 1 8.41043 10.0352 1.39893
579 1 1 9.40118 9.28364 3.00972
1020 1 1 10.6825 10.7242 3.21132
1023 1 1 11.7017 9.69253 1.39876
188 1 1 14.2067 9.39187 1.99093
632 1 1 13.6709 8.8586 2.65392
276 1 1 15.3517 9.23984 1.88712
958 1 1 16.8992 9.63212 2.67628
1802 1 1 0.0518935 9.31344 3.18824
315 1 1 1.38083 10.5552 1.66728
357 1 1 1.58014 10.4577 3.05526
998 1 1 0.545867 11.2739 3.35024
567 1 1 4.15321 10.8578 2.91817
7847 1 1 3.16613 10.7827 1.76111
687 1 1 5.08984 11.1507 1.71327
691 1 1 7.4131 11.6886 1.41131
574 1 1 6.18674 10.7009 2.39336
1061 1 1 7.9812 10.6441 2.37473
618 1 1 10.1448 9.43283 2.26103
651 1 1 9.01244 9.99361 2.19802
1063 1 1 11.4827 10.5962 1.02258
1105 1 1 10.8036 10.2871 1.89498
269 1 1 12.359 10.7815 1.76614
1031 1 1 11.7609 10.2755 2.50862
1076 1 1 12.7508 10.3966 2.81569
636 1 1 14.0029 10.9564 1.85671
600 1 1 14.8936 10.1216 3.05543
240 1 1 14.9695 11.3363 1.60304
7838 1 1 16.5863 10.6611 1.93028
677 1 1 16.4349 11.6 2.87888
241 1 1 18.2058 9.81585 1.78781
7841 1 1 0.90635 11.9643 1.9812
1048 1 1 2.57683 11.8515 2.19336
7928 1 1 3.64238 12.2167 1.40438
1050 1 1 4.18573 11.8675 2.45984
252 1 1 6.23019 11.8051 2.47664
7900 1 1 5.78771 13.0137 1.6289
339 1 1 6.57251 12.9658 2.58279
622 1 1 8.04553 11.6103 3.12591
614 1 1 10.6124 11.3434 2.30048
668 1 1 10.8518 12.4996 2.7745
7903 1 1 12.3395 12.1597 1.29525
667 1 1 12.9473 11.5576 2.41857
1509 1 1 11.8249 11.7603 2.26225
638 1 1 14.3188 12.1436 1.82895
592 1 1 15.4523 11.6564 2.5447
273 1 1 14.1859 13.1642 2.53835
277 1 1 15.269 12.7174 1.71145
271 1 1 15.3159 13.4994 2.46171
1078 1 1 16.2658 12.0646 1.72874
281 1 1 18.1069 13.227 1.87542
1035 1 1 18.7502 11.9797 2.46035
7840 1 1 17.2845 11.736 1.47551
7995 1 1 0.1791 13.2178 2.88662
1154 1 1 0.879737 13.9644 1.36109
7482 1 1 1.70501 13.515 2.22699
365 1 1 2.71257 13.2266 1.36923
685 1 1 2.50961 14.4693 1.77682
7921 1 1 3.50821 14.0499 1.71719
1081 1 1 4.26914 12.7891 3.03494
287 1 1 5.39857 13.783 2.71209
696 1 1 6.54604 13.9409 2.02344
341 1 1 8.18392 13.3612 1.70132
627 1 1 7.56984 14.189 1.92404
740 1 1 7.08938 13.1804 1.46443
1098 1 1 8.24515 13.3703 2.81533
254 1 1 10.1317 13.8179 1.3304
694 1 1 9.09701 13.5527 2.1877
1102 1 1 10.3338 13.4044 2.65334
1108 1 1 11.8935 12.8744 2.45231
7913 1 1 12.6901 13.6682 2.2804
1069 1 1 12.929 12.7613 2.09143
674 1 1 14.6201 14.0825 1.72136
7925 1 1 15.8158 13.8088 1.56847
7834 1 1 15.0247 13.4635 0.968679
317 1 1 15.2672 14.8928 2.02182
234 1 1 16.0165 14.3019 2.4783
435 1 1 18.0705 13.8337 2.64378
7844 1 1 0.26269 15.4194 1.9129
325 1 1 1.33071 14.5762 2.10082
757 1 1 0.392134 14.4222 2.75427
1007 1 1 1.02573 15.5577 3.04906
751 1 1 1.872 15.4834 2.087
1128 1 1 3.4141 15.0325 1.46704
330 1 1 5.33197 15.1439 1.81533
648 1 1 3.89856 15.9436 1.80416
690 1 1 7.12271 15.8121 2.04475
342 1 1 6.71351 15.0624 1.38524
658 1 1 9.40114 14.8343 2.11712
1506 1 1 9.95931 16.0457 2.41662
742 1 1 10.9373 15.7003 2.04414
662 1 1 10.9336 14.7161 2.8258
1142 1 1 10.9003 14.4561 1.65665
743 1 1 11.6951 15.5556 1.32976
298 1 1 12.2675 14.6995 1.90969
272 1 1 11.7782 13.8857 2.65517
306 1 1 13.7479 16.2745 1.57389
1146 1 1 13.8586 16.1523 2.91081
699 1 1 13.4074 14.6786 1.86765
709 1 1 15.8577 15.8239 1.48227
749 1 1 16.6409 14.5596 1.5417
713 1 1 16.3154 14.8778 3.95096
351 1 1 17.3821 15.669 1.74445
312 1 1 18.5058 15.2632 2.9091
7870 1 1 18.0882 14.9001 2.04915
318 1 1 1.05441 16.2043 1.81552
1199 1 1 0.192118 16.249 2.70781
404 1 1 1.85016 16.5465 2.48132
1529 1 1 2.8737 15.7886 2.76408
773 1 1 3.06631 16.9922 2.28886
771 1 1 4.14383 17.2761 1.93564
1531 1 1 5.17372 16.0121 2.80324
1134 1 1 6.23207 16.152 2.95306
343 1 1 8.557 16.9854 2.02401
375 1 1 9.05137 15.7869 1.58444
1176 1 1 8.19797 15.938 2.39109
704 1 1 9.06694 16.5857 2.95952
698 1 1 10.7326 16.7711 2.16304
346 1 1 11.4649 16.4708 1.59419
64 1 1 12.3821 16.0144 2.20687
702 1 1 14.5602 17.0432 1.64134
1143 1 1 12.772 17.1005 2.57365
1106 1 1 15.5107 17.5969 2.52507
394 1 1 15.0918 16.0752 2.33098
1158 1 1 16.0041 15.6772 2.69567
433 1 1 15.6713 16.9068 1.32776
728 1 1 17.2612 17.0116 3.13158
1149 1 1 17.8876 16.3251 2.89422
769 1 1 1.8202 18.2598 1.95042
682 1 1 1.84622 17.6137 2.79341
766 1 1 0.64371 17.2126 1.85149
1172 1 1 2.90895 18.0502 2.11445
7972 1 1 3.39718 0.011809 1.55442
1168 1 1 4.74244 0.143981 2.06016
777 1 1 5.52289 16.953 2.04187
1130 1 1 5.73929 18.0333 2.71334
855 1 1 7.18666 16.7487 2.44976
1180 1 1 8.0481 17.8799 2.42584
19 1 1 9.12331 17.8232 2.97695
11 1 1 10.7006 18.0388 1.58411
468 1 1 10.0825 17.6393 2.64873
386 1 1 12.7607 18.0778 2.8105
783 1 1 11.7711 17.131 2.43576
831 1 1 13.3774 17.8354 3.56443
867 1 1 13.5487 17.9441 1.76264
790 1 1 14.6902 18.3255 2.14947
800 1 1 15.4313 0.39583 3.14702
796 1 1 17.056 17.9721 2.62866
794 1 1 16.1735 18.3556 1.77187
1238 1 1 18.5294 17.1819 2.36714
873 1 1 0.930665 18.1536 3.69684
43 1 1 2.82316 0.124243 3.62574
843 1 1 1.93869 0.913884 3.61356
443 1 1 1.3098 0.324711 4.2675
487 1 1 4.02313 0.0603815 3.44627
292 1 1 4.70465 1.09247 3.97662
772 1 1 4.99278 0.0709058 3.12783
1181 1 1 6.52088 1.41685 3.13556
863 1 1 5.73016 0.449893 4.28809
861 1 1 7.36803 0.307713 4.29318
821 1 1 9.70557 18.6607 4.26482
872 1 1 11.4843 0.652528 3.70554
466 1 1 12.0155 0.124488 2.85341
828 1 1 13.475 1.51056 4.66856
1188 1 1 12.3385 1.68914 3.92623
1341 1 1 12.3263 0.00851655 4.19045
30 1 1 14.0932 1.46729 3.06051
1272 1 1 14.6473 2.06664 4.59132
1597 1 1 14.9955 1.19693 3.6125
799 1 1 16.2114 0.988312 2.90876
1634 1 1 17.5161 0.597704 4.40904
35 1 1 0.191027 1.19107 3.62877
442 1 1 1.61661 1.87583 3.40817
764 1 1 0.648171 1.70498 4.36458
1201 1 1 2.78951 1.57275 3.63943
857 1 1 2.98822 2.05083 2.27004
849 1 1 3.73611 2.0305 3.17591
767 1 1 4.72094 2.06208 3.63993
455 1 1 6.1574 2.68221 2.84506
7220 1 1 5.78544 1.77462 3.95264
850 1 1 8.23409 2.42049 3.33916
854 1 1 7.63434 1.54503 3.95925
810 1 1 8.61497 1.92538 4.37186
1138 1 1 9.62293 2.69959 3.09213
410 1 1 9.36187 1.19779 4.01321
1178 1 1 8.78256 0.64385 3.09455
469 1 1 10.7228 1.40323 3.65187
1630 1 1 11.255 2.29323 3.60625
1273 1 1 13.4308 2.1508 3.61829
32 1 1 14.8725 1.97546 2.78141
1197 1 1 15.7189 2.2102 4.27102
1315 1 1 16.8045 2.65512 3.56601
157 1 1 17.6135 1.76153 3.54754
841 1 1 18.7625 2.99106 3.69203
521 1 1 0.989058 3.51764 3.17294
848 1 1 2.13362 3.67388 3.40378
1359 1 1 2.20951 3.56319 4.56115
87 1 1 4.3729 3.1894 3.35538
846 1 1 3.03187 4.14373 3.92848
887 1 1 3.78879 3.78148 2.62373
1256 1 1 4.0693 4.12237 3.67664
1210 1 1 5.07461 4.00681 3.42686
894 1 1 6.29316 3.91756 4.60397
860 1 1 6.55579 2.71508 3.94293
1255 1 1 7.7854 3.77947 2.90713
814 1 1 7.71943 3.14535 4.49496
1345 1 1 8.77659 3.339 3.58509
1340 1 1 7.02486 4.07525 3.5764
1377 1 1 10.4993 3.88406 4.20937
420 1 1 11.8909 3.3662 3.98808
912 1 1 12.3745 4.39411 4.273
471 1 1 13.7534 4.07731 3.72795
514 1 1 15.1616 3.1743 2.8455
156 1 1 14.8897 3.89058 3.82549
910 1 1 15.7623 3.09539 3.69253
1669 1 1 14.6861 2.97762 3.71059
801 1 1 16.5096 3.24699 2.73715
1675 1 1 16.8548 3.8483 5.11393
448 1 1 18.1687 2.64174 2.86843
918 1 1 17.7384 3.69294 4.14914
1200 1 1 0.233334 3.99541 3.82299
525 1 1 18.8146 5.74875 3.92024
1797 1 1 1.13001 5.29281 3.51599
1242 1 1 2.39619 4.64421 3.2897
1605 1 1 3.5495 5.20149 3.087
454 1 1 4.78059 4.90941 3.03634
1733 1 1 4.67986 5.10048 4.09797
1254 1 1 6.87586 5.2096 3.21078
1295 1 1 7.97571 4.24439 3.86382
1384 1 1 7.79245 5.43832 4.02346
537 1 1 9.81573 3.95884 3.17451
939 1 1 8.92621 5.1851 3.88337
7779 1 1 10.8307 4.57922 3.37117
544 1 1 12.6079 5.87685 4.30499
870 1 1 11.7341 5.2728 3.55453
509 1 1 13.0083 4.93666 3.81573
34 1 1 14.1489 4.25032 2.44647
558 1 1 15.1051 4.86679 3.08556
960 1 1 17.0651 5.17602 3.38063
520 1 1 16.7874 4.2727 3.8756
488 1 1 18.1379 4.93337 3.07967
880 1 1 17.8009 4.75361 4.23333
522 1 1 0.387663 7.24297 3.48276
922 1 1 0.231018 6.97566 4.64822
1285 1 1 1.15975 6.37447 4.08652
999 1 1 1.61517 6.22619 3.14745
486 1 1 1.98287 7.08197 4.14749
489 1 1 2.43246 5.80749 3.5863
886 1 1 2.97013 7.65181 4.06257
966 1 1 3.0032 6.68368 2.39158
924 1 1 3.45581 6.35455 3.1895
936 1 1 4.86738 6.12091 3.22439
99 1 1 6.13792 6.72925 3.26293
1780 1 1 5.67976 6.66258 4.11474
1739 1 1 7.29173 6.56373 3.30812
1331 1 1 7.91467 6.75509 4.43277
971 1 1 8.63913 6.39145 3.5521
938 1 1 9.97749 6.80493 2.85551
1338 1 1 9.64863 6.12197 3.96674
623 1 1 11.1819 6.9977 2.52907
944 1 1 10.6827 6.21757 3.58655
551 1 1 11.93 6.53669 3.43543
152 1 1 12.5434 5.9685 2.9495
7754 1 1 13.9563 5.98595 2.90463
512 1 1 14.8181 7.2171 4.20092
878 1 1 15.4508 6.3149 3.77164
112 1 1 16.2497 5.72686 2.95851
920 1 1 16.6613 5.20839 4.73685
1396 1 1 16.9042 6.91089 2.81807
1793 1 1 16.5854 6.69356 4.42312
1443 1 1 17.6403 6.17359 3.35544
603 1 1 17.9739 8.31687 4.12094
1365 1 1 1.98088 8.15558 3.5681
531 1 1 3.80208 7.96011 4.46876
1369 1 1 3.01372 7.66886 2.58832
1409 1 1 3.75914 7.93846 3.38625
209 1 1 4.39804 7.02256 3.2065
90 1 1 5.81229 7.71512 3.49174
1045 1 1 4.67047 8.37331 3.80984
649 1 1 6.88582 8.46444 4.29487
7850 1 1 7.26615 8.60361 3.36623
492 1 1 6.83199 7.48398 3.08526
1373 1 1 6.97045 7.25313 4.0571
530 1 1 7.9806 7.30609 3.02708
975 1 1 8.14908 8.05796 4.05636
584 1 1 9.98385 8.8451 4.38611
1421 1 1 8.932 8.57979 3.66869
978 1 1 9.09139 8.09493 2.76077
555 1 1 10.6269 7.50024 3.53929
586 1 1 11.3959 8.93485 3.93282
587 1 1 9.70363 7.28889 4.04991
232 1 1 11.7264 7.79747 3.9327
1036 1 1 12.7801 7.37111 3.94653
979 1 1 13.7284 7.02127 3.58199
193 1 1 14.8959 7.68812 3.03806
956 1 1 14.2708 8.19413 3.74445
1314 1 1 16.043 7.8755 2.96812
1071 1 1 16.6537 7.46733 3.80815
563 1 1 17.7102 7.52709 3.2052
1005 1 1 0.26268 10.3208 3.36254
1439 1 1 1.69173 9.55198 3.54076
1053 1 1 3.80882 9.07044 3.68648
1051 1 1 4.6628 10.2119 3.65578
572 1 1 6.3931 8.43472 2.84147
1420 1 1 5.56033 9.85315 3.29351
1015 1 1 8.16645 9.65198 4.54492
1017 1 1 8.32286 9.72014 3.50087
136 1 1 10.1326 9.89986 3.59616
1021 1 1 9.20565 9.42777 4.29818
985 1 1 10.8945 9.95125 4.18658
539 1 1 10.9586 9.65916 2.88437
1066 1 1 12.4698 8.67701 3.75844
993 1 1 14.3632 9.26852 3.42675
640 1 1 15.4108 8.70051 3.05367
1434 1 1 15.3659 9.63317 3.92165
1073 1 1 16.7893 8.81459 3.9774
1038 1 1 17.9928 10.0477 2.85624
1037 1 1 17.6793 9.38617 3.75256
1012 1 1 2.63044 10.8075 3.05577
597 1 1 1.48044 10.6162 4.40971
1444 1 1 2.75808 10.5433 4.12952
1405 1 1 3.67697 9.99063 3.71271
1085 1 1 4.49397 11.8876 3.79923
1415 1 1 4.62523 10.2352 4.69203
653 1 1 5.449 10.8804 3.30636
1334 1 1 6.54698 10.7291 3.21922
650 1 1 5.59988 11.0415 4.37528
606 1 1 9.6253 10.6197 3.09985
659 1 1 7.76227 10.8948 4.21285
1462 1 1 8.88552 10.813 4.07259
707 1 1 10.0639 10.9298 4.22501
916 1 1 11.9957 10.1734 3.64096
1065 1 1 11.9583 11.1763 3.08238
1547 1 1 14.154 11.6367 3.05361
1429 1 1 13.3396 9.66411 3.63092
311 1 1 15.612 10.7399 3.37527
1437 1 1 14.6271 11.0082 3.82741
1034 1 1 17.2798 10.7919 3.4771
197 1 1 18.379 10.8758 2.463
7843 1 1 1.75149 12.837 3.49754
1368 1 1 0.170696 11.9403 4.03635
242 1 1 2.48321 12.199 3.16366
968 1 1 0.972945 12.217 3.23077
1406 1 1 2.20388 11.3465 4.16204
604 1 1 3.41274 11.3317 3.79507
246 1 1 4.05683 13.3641 3.98083
1008 1 1 5.16007 12.2538 2.63935
612 1 1 6.14488 13.1173 3.57133
661 1 1 6.96986 11.8602 3.77195
225 1 1 10.186 12.6868 3.5769
7862 1 1 9.34071 11.979 2.57047
621 1 1 9.12933 12.8605 3.2918
1465 1 1 10.3391 11.9269 4.37054
663 1 1 11.0678 11.9397 3.5195
630 1 1 12.2197 12.6289 3.34218
1070 1 1 12.9661 11.3926 3.49062
1074 1 1 13.2029 12.6154 3.56719
669 1 1 14.4384 12.3014 3.81356
1474 1 1 15.3937 12.6356 3.99632
1001 1 1 15.9682 12.613 2.76261
270 1 1 16.9987 12.6918 3.58713
243 1 1 1.24432 14.1029 3.08407
286 1 1 1.43794 14.4227 4.36308
678 1 1 0.0151399 13.5143 3.90056
686 1 1 2.24419 13.6614 3.93172
1453 1 1 4.03893 14.4798 3.37562
1136 1 1 2.90639 14.2821 3.34741
1446 1 1 3.1448 12.9256 3.64032
605 1 1 5.06202 14.4033 3.52306
1047 1 1 6.73108 12.8859 4.4457
1090 1 1 6.21124 14.2514 3.16009
7823 1 1 8.03369 12.5993 4.43498
1104 1 1 8.22916 13.6908 3.92565
1533 1 1 9.57366 13.9191 3.19894
1537 1 1 11.4799 13.4831 3.69174
664 1 1 10.445 13.8587 4.09765
1114 1 1 12.4055 14.5157 3.14813
711 1 1 12.5292 13.6896 4.01095
1501 1 1 11.8804 12.6404 4.28583
1505 1 1 12.4892 14.1819 4.95764
602 1 1 14.3933 14.4668 3.76629
672 1 1 13.7758 13.4786 4.00118
1151 1 1 13.3715 13.4753 3.0301
1472 1 1 13.1199 14.5513 4.06551
715 1 1 14.784 13.632 3.42917
1115 1 1 14.6683 13.5816 4.49223
590 1 1 15.8726 13.6807 3.59287
1042 1 1 16.6692 14.0097 4.51735
720 1 1 17.507 13.6035 3.78637
683 1 1 16.7289 14.3271 3.26318
1163 1 1 0.888192 15.0495 3.79292
1046 1 1 2.07222 15.1451 3.22577
332 1 1 3.52147 15.3327 3.29532
1131 1 1 3.52236 16.4009 4.22467
411 1 1 5.83495 15.2161 2.84256
1530 1 1 4.53528 15.3168 3.6412
1170 1 1 6.74108 15.2699 3.61322
737 1 1 9.00937 14.6649 3.63795
260 1 1 7.87964 15.3325 3.26367
1127 1 1 7.36263 14.8363 4.2664
736 1 1 9.82063 15.2975 3.20528
1139 1 1 10.7996 15.4713 3.73127
1107 1 1 11.6491 14.6428 4.04332
1543 1 1 11.632 15.8679 4.04805
701 1 1 11.5877 15.4546 3.06935
310 1 1 14.1268 14.5522 2.64537
712 1 1 13.1755 15.5391 3.77551
1153 1 1 15.2906 15.445 3.38546
1514 1 1 18.6644 15.1974 4.06525
759 1 1 17.3449 15.2633 3.13447
724 1 1 18.2766 14.4256 3.55699
284 1 1 0.750187 16.1089 3.84463
1167 1 1 0.939606 16.8305 3.02079
323 1 1 2.91564 17.9074 3.47542
282 1 1 3.28366 16.6936 3.26912
1133 1 1 5.56141 16.2706 3.89825
734 1 1 8.12252 17.0462 3.29585
778 1 1 6.8104 17.3424 4.76386
535 1 1 6.53596 16.9318 3.67281
7975 1 1 7.89195 16.0541 4.21463
1185 1 1 9.83463 16.6301 4.01126
1541 1 1 8.81512 15.7904 3.40701
823 1 1 11.0883 17.3189 4.38226
671 1 1 11.0665 17.0518 3.23199
1186 1 1 12.6658 16.2135 3.12985
1183 1 1 13.1591 16.5944 4.7972
1187 1 1 12.1806 17.4895 3.42533
1191 1 1 13.4547 16.7862 3.75394
748 1 1 14.3081 16.1486 3.84491
716 1 1 15.467 16.7655 3.41695
1150 1 1 16.6581 16.2556 3.65171
1189 1 1 16.1346 16.9428 4.29572
280 1 1 0.0440548 16.7632 3.62851
727 1 1 18.2893 17.2023 4.44106
837 1 1 0.0521816 18.294 1.81785
1161 1 1 1.85272 18.0169 4.12911
726 1 1 3.98144 17.9328 2.63271
693 1 1 4.08714 17.2662 4.7693
1215 1 1 5.68131 17.5341 3.89602
1217 1 1 4.74349 17.8464 3.33922
1213 1 1 7.56941 18.2438 3.42433
1140 1 1 8.57387 18.2597 3.90989
423 1 1 9.25863 17.8627 4.63459
428 1 1 9.89648 18.7195 3.20839
822 1 1 10.5782 0.359385 3.98899
1141 1 1 10.3721 17.6145 3.73884
432 1 1 14.5305 17.42 2.88164
463 1 1 13.3434 17.8207 4.74375
1195 1 1 15.2648 18.1449 3.28143
467 1 1 14.275 0.327317 3.32332
1590 1 1 15.2964 0.0268268 4.43452
787 1 1 16.4717 18.2159 3.93788
1160 1 1 17.3155 0.160024 3.06797
2037 1 1 18.4447 17.7225 3.45706