LAMMPS data file via write_data, version 29 Aug 2024, timestep = 20, units = metal

4 atoms
1 atom types

0.01440031473284943 4.064599685267147 xlo xhi
0.01440031473284943 4.064599685267147 ylo yhi
0.01440031473284943 4.064599685267147 zlo zhi

Masses

1 26.982

Atoms # atomic

1 1 0.01440031473284975 0.01440031473284975 0.01440031473284975 0 0 0
2 1 2.039499999999998 2.039499999999998 0.01440031473284975 0 0 0
3 1 2.039499999999998 0.01440031473284975 2.039499999999998 0 0 0
4 1 0.01440031473284975 2.039499999999998 2.039499999999998 0 0 0

Velocities

1 0 0 0
2 0 0 0
3 0 0 0
4 0 0 0
