LAMMPS data file via write_data, version 29 Aug 2024, timestep = 7, units = metal

4 atoms
1 atom types

-0.005321296379633658 4.084321296379635 xlo xhi
-0.005321296379633658 4.084321296379635 ylo yhi
-0.005321296379633658 4.084321296379635 zlo zhi

Masses

1 107.87

Atoms # atomic

1 1 -0.0053212963796336445 -0.0053212963796336445 -0.0053212963796336445 0 0 0
2 1 2.0395000000000008 2.0395000000000008 -0.005321296379633645 0 0 0
3 1 2.0395000000000008 -0.00532129637963365 2.0395000000000008 0 0 0
4 1 -0.00532129637963365 2.0395000000000008 2.0395000000000008 0 0 0

Velocities

1 0 0 0
2 0 0 0
3 0 0 0
4 0 0 0
