LAMMPS data file via write_data, version 29 Aug 2024, timestep = 120, units = metal

4 atoms
1 atom types

0.23201993846042135 3.8469800615395657 xlo xhi
0.23201993846042135 3.8469800615395657 ylo yhi
0.23201993846042135 3.8469800615395657 zlo zhi

Masses

1 63.546

Atoms # atomic

1 1 0.23201993846042368 0.23201993846042368 0.23201993846042365 0 0 0
2 1 2.039499999999996 2.039499999999996 0.23201993846042365 0 0 0
3 1 2.039499999999996 0.23201993846042368 2.039499999999996 0 0 0
4 1 0.2320199384604237 2.039499999999996 2.039499999999996 0 0 0

Velocities

1 0 0 0
2 0 0 0
3 0 0 0
4 0 0 0
