LAMMPS data file via write_data, version 29 Aug 2024, timestep = 1, units = metal

4 atoms
1 atom types

0 4.03 xlo xhi
0 4.03 ylo yhi
0 4.03 zlo zhi

Masses

1 107.87

Atoms # atomic

1 1 0 0 0 0 0 0
2 1 2.015 2.015 0 0 0 0
3 1 2.015 0 2.015 0 0 0
4 1 0 2.015 2.015 0 0 0

Velocities

1 0 0 0
2 0 0 0
3 0 0 0
4 0 0 0
