ITEM: TIMESTEP
4200
ITEM: NUMBER OF ATOMS
8000
ITEM: BOX BOUNDS pp pp pp
0.0000000000000000e+00 1.8820720577620570e+01
0.0000000000000000e+00 1.8820720577620570e+01
0.0000000000000000e+00 3.7641441155241139e+01
ITEM: ATOMS id mass type x y z
7265 1 1 1.1564 18.6676 0.483878
2134 1 1 2.46936 18.5963 37.4721
7560 1 1 0.437149 1.56687 0.733624
6076 1 1 5.15532 0.437529 37.1646
2026 1 1 4.91794 1.06978 0.266322
605 1 1 7.27775 0.0491938 1.06707
6017 1 1 8.89811 18.5687 1.06178
6703 1 1 9.44594 1.55443 0.825453
6509 1 1 9.85319 0.725114 0.347169
7821 1 1 12.9028 0.334354 37.2297
382 1 1 13.2888 1.70253 0.465993
7938 1 1 13.992 1.42821 1.70415
742 1 1 13.1286 2.31219 2.48587
1269 1 1 15.3354 0.80266 1.57779
7293 1 1 18.1712 1.25726 0.0910273
7690 1 1 1.57573 1.71669 1.74508
7261 1 1 2.43594 1.18153 1.03229
7604 1 1 1.8101 1.92356 0.672617
6995 1 1 2.25672 2.61875 1.492
402 1 1 4.4724 3.03418 1.3523
816 1 1 2.91956 2.23276 0.743381
6459 1 1 4.03884 1.96858 0.122823
7585 1 1 3.86546 1.07393 0.735495
3 1 1 5.57163 2.4658 1.03581
497 1 1 6.44551 1.57505 1.24946
1168 1 1 5.20052 1.46425 1.29205
7725 1 1 7.74998 2.88679 0.249875
89 1 1 8.83734 2.1636 1.26439
7994 1 1 10.3652 2.12812 37.1982
1333 1 1 12.2632 2.76134 37.5307
1037 1 1 14.3262 2.88382 0.347081
7471 1 1 14.8488 1.25129 0.741631
1540 1 1 17.4901 2.14428 0.0852348
1713 1 1 0.491552 2.92126 0.248339
6152 1 1 2.04881 3.63285 1.59472
1239 1 1 1.1317 3.0499 1.23274
7091 1 1 2.66285 3.01522 0.00979434
7456 1 1 3.20363 3.03786 1.57527
802 1 1 4.00531 5.26423 0.879549
7653 1 1 5.39123 3.31194 1.59439
7300 1 1 6.36533 3.79895 2.62681
7667 1 1 6.22584 3.68185 0.674256
7919 1 1 9.23429 1.96573 37.3124
633 1 1 8.31523 3.87351 0.14104
529 1 1 10.2974 2.20908 0.839663
7010 1 1 11.0674 2.51069 1.83968
1380 1 1 12.9184 4.34745 1.38946
446 1 1 13.21 2.10428 1.41496
434 1 1 13.9077 3.03676 36.9838
7432 1 1 15.5994 3.9544 1.09597
7636 1 1 15.0927 4.09223 0.118392
2160 1 1 15.682 2.81748 1.35112
5397 1 1 16.8671 5.16803 36.8182
6199 1 1 16.0776 3.12841 0.335424
68 1 1 0.330423 4.30303 0.537827
924 1 1 1.04453 5.41903 0.924742
1237 1 1 1.18449 4.31473 2.12982
7366 1 1 1.58475 5.6837 2.49246
72 1 1 0.648997 4.49089 37.293
489 1 1 1.9817 5.11923 0.41629
1885 1 1 3.45752 5.25371 37.6196
568 1 1 5.99773 4.76026 37.4003
323 1 1 7.78088 4.71881 1.00176
796 1 1 6.99558 5.63976 0.545711
1369 1 1 10.2732 5.86083 1.03006
1045 1 1 8.97188 6.49207 0.622749
6691 1 1 9.88361 4.76396 37.3998
2232 1 1 12.9564 5.43533 0.810544
502 1 1 13.2042 4.90768 37.4151
7866 1 1 10.7832 5.87742 37.4792
1329 1 1 14.2655 5.43634 0.696008
1109 1 1 13.769 3.95355 37.5353
7796 1 1 13.3962 6.0488 36.7413
6828 1 1 14.7137 5.11049 37.4049
7972 1 1 17.4589 6.58234 37.5771
75 1 1 17.8664 4.74207 1.59077
2357 1 1 17.1904 4.57102 0.782717
6561 1 1 18.0966 6.46506 0.857383
7944 1 1 3.27006 6.38963 2.60732
15 1 1 5.96494 6.06045 0.832969
7322 1 1 6.2178 7.01134 1.29563
7699 1 1 4.71556 6.17231 0.643553
7663 1 1 8.20671 6.07066 1.52308
5747 1 1 8.30471 5.21096 0.187227
7924 1 1 8.18043 7.21644 2.46359
6538 1 1 9.56469 7.44194 0.871496
5690 1 1 10.5019 8.2539 1.07132
378 1 1 10.6255 7.18236 0.619113
7427 1 1 12.3021 5.48903 37.1581
7937 1 1 14.7074 6.59408 0.426396
5812 1 1 13.3827 7.12161 37.0284
7641 1 1 14.8156 6.49382 1.66009
107 1 1 14.5119 7.6999 0.50486
657 1 1 16.4584 6.50861 0.295061
7351 1 1 17.9848 7.14987 1.96411
7544 1 1 15.568 6.785 0.950004
7841 1 1 1.46789 6.56836 0.888358
1314 1 1 1.77461 9.08963 2.34841
6874 1 1 3.61658 7.21192 0.666885
626 1 1 1.45842 9.24653 0.711374
997 1 1 3.90416 8.266 0.487464
175 1 1 3.37765 7.66424 2.13946
6987 1 1 4.95027 7.79216 1.48102
7803 1 1 6.83016 6.71119 0.249799
1850 1 1 6.23603 8.24885 37.4379
7643 1 1 8.2396 8.69554 37.2061
6477 1 1 7.44469 8.26773 -0.00318458
7748 1 1 8.3575 7.68653 0.871795
6136 1 1 8.59817 6.96936 37.4548
7301 1 1 14.0661 7.02325 1.2303
181 1 1 12.6672 7.75344 1.10354
461 1 1 13.4863 8.65006 0.713922
7983 1 1 13.2143 9.63752 0.983789
230 1 1 16.3601 7.97594 0.782508
186 1 1 18.5148 7.83413 0.533098
444 1 1 0.681315 6.96708 0.405525
550 1 1 16.98 8.53729 36.4664
7795 1 1 1.64185 7.3341 0.19593
7451 1 1 0.278206 10.0088 0.238336
2320 1 1 0.0891998 8.77419 0.877648
222 1 1 3.98837 9.15694 0.158901
138 1 1 3.7998 10.1577 1.03718
331 1 1 5.88036 7.87237 1.00391
530 1 1 6.69824 9.60961 0.0938897
1450 1 1 7.45461 9.48459 36.8959
7335 1 1 8.80824 9.10752 1.35726
53 1 1 8.98846 10.2045 1.25695
7891 1 1 9.21171 10.1803 0.245373
6669 1 1 11.4119 9.02141 37.5431
1790 1 1 9.31707 9.11951 0.502415
7826 1 1 12.8461 10.5799 0.499171
7932 1 1 12.1891 9.2448 0.644899
6997 1 1 14.6159 10.2138 1.56841
1359 1 1 14.3614 8.2534 1.50601
6705 1 1 15.5233 9.32577 37.5878
84 1 1 18.8361 10.9535 0.618507
200 1 1 1.20889 10.9771 0.738183
7011 1 1 2.80232 9.68385 0.958724
7897 1 1 3.35749 9.95101 37.5879
453 1 1 6.36392 11.4886 0.789417
1512 1 1 6.77606 10.7251 0.0114604
1217 1 1 6.41343 10.1858 1.09117
1906 1 1 11.7912 11.2233 2.02485
6896 1 1 9.92351 10.2593 0.961811
7457 1 1 10.8626 10.7595 0.303565
6699 1 1 13.4753 11.1389 1.91177
1193 1 1 14.812 10.1751 0.124941
7512 1 1 15.4661 10.9738 1.43442
7022 1 1 16.9999 10.1834 0.445353
769 1 1 16.4282 11.5013 1.27317
7397 1 1 15.9646 10.2277 1.05127
1120 1 1 17.3633 11.0366 0.0461173
1036 1 1 17.8994 9.54295 0.895855
7189 1 1 17.7679 11.8997 37.0219
7927 1 1 1.52993 12.3485 1.85214
215 1 1 4.37137 12.0489 0.0142446
6578 1 1 3.21563 11.7066 0.298148
1211 1 1 4.43834 11.8424 1.05235
2373 1 1 6.72225 12.5624 0.812014
691 1 1 7.63581 11.0351 1.13078
7004 1 1 8.1738 12.669 1.89637
255 1 1 7.66423 12.6498 0.241708
993 1 1 8.50975 12.026 0.950407
765 1 1 7.81148 10.5526 37.526
99 1 1 9.60232 11.8783 36.5112
1017 1 1 9.86742 12.8013 1.35212
6864 1 1 9.71519 11.9151 0.225415
296 1 1 12.9989 12.1764 0.130625
7452 1 1 14.2968 12.0646 0.439263
7075 1 1 13.8776 12.9717 0.871156
2017 1 1 13.4048 11.9337 1.14155
57 1 1 15.0305 12.6815 0.715022
973 1 1 15.4401 11.9114 1.32765
7772 1 1 16.8971 13.498 1.59779
693 1 1 15.8921 12.1706 0.350756
1116 1 1 18.7965 13.5855 1.95273
1282 1 1 2.10158 13.2453 0.991806
559 1 1 0.866309 12.1721 0.816887
203 1 1 3.74013 14.3042 0.912254
7139 1 1 4.66224 14.3327 1.66156
813 1 1 6.39999 14.2095 1.33709
863 1 1 6.3166 13.1532 1.79379
17 1 1 5.10036 12.6448 0.743648
8 1 1 7.16074 13.7671 0.742595
7610 1 1 7.72731 13.8439 37.0608
6590 1 1 8.89434 13.3063 1.25134
738 1 1 10.3661 13.7332 1.11506
1081 1 1 8.56003 13.0981 37.2438
7489 1 1 11.8743 13.9318 3.11298
6634 1 1 11.7698 11.3717 0.167653
7704 1 1 12.641 13.1774 0.91396
7635 1 1 14.8232 13.2906 1.88725
7853 1 1 15.2431 14.1945 1.16005
6788 1 1 17.2497 13.0673 0.666903
7888 1 1 18.6993 14.792 0.710424
113 1 1 0.653432 13.3857 36.4591
1928 1 1 17.963 13.7632 1.34436
5597 1 1 0.302737 15.7349 0.402036
1529 1 1 1.01992 14.5508 1.64975
311 1 1 1.34806 15.8309 0.790876
6321 1 1 2.54062 14.3484 1.05437
1082 1 1 3.71385 15.3488 0.621904
6379 1 1 5.2917 15.2644 1.69633
1729 1 1 5.37578 15.4573 0.700569
734 1 1 5.69977 14.4051 2.4569
67 1 1 7.89832 13.9196 1.68177
7206 1 1 7.36762 17.3899 0.0578264
660 1 1 9.72895 14.2786 0.396309
586 1 1 8.77623 15.2427 37.4137
377 1 1 11.0872 16.1962 0.124666
1143 1 1 12.2825 15.4497 0.997111
740 1 1 13.1162 14.4731 1.12066
7834 1 1 13.8667 14.724 37.6201
6399 1 1 15.5029 13.4688 35.6589
6723 1 1 15.4342 15.1973 0.722065
237 1 1 15.9551 14.4483 0.0609868
465 1 1 16.4684 15.7833 37.5401
129 1 1 17.5523 14.821 1.77473
7483 1 1 16.8522 14.1856 0.752069
1192 1 1 0.764001 16.6174 0.23511
7525 1 1 0.693973 16.6407 1.34392
192 1 1 18.5006 17.4345 0.398559
795 1 1 3.39476 16.3611 0.636603
1446 1 1 4.37868 17.7439 0.296996
7543 1 1 6.51741 15.5963 1.21094
7767 1 1 5.38178 16.7081 36.9646
749 1 1 7.93444 14.735 0.666165
7678 1 1 7.19796 16.5459 1.34431
419 1 1 8.01496 16.0306 0.752609
1064 1 1 9.27004 16.6541 36.6194
38 1 1 9.58389 16.9216 1.37241
7779 1 1 12.3418 17.2409 0.464362
7508 1 1 11.354 17.4405 0.082393
6636 1 1 13.2338 17.5209 1.15319
1584 1 1 13.3231 16.57 0.342174
1134 1 1 11.835 18.1259 1.00908
501 1 1 13.9946 15.5807 0.87784
3499 1 1 14.4917 17.6577 2.29855
2038 1 1 14.0396 16.2955 2.85185
7390 1 1 14.5584 16.431 0.1638
7787 1 1 17.2502 16.5422 1.95202
5999 1 1 0.336601 18.5634 1.27582
314 1 1 17.9829 18.6816 1.20206
1569 1 1 1.24043 17.5821 1.28048
7210 1 1 3.75382 18.7585 1.79882
1257 1 1 4.39802 0.13016 0.655584
1895 1 1 5.42582 17.9564 0.585961
43 1 1 6.30191 17.4706 0.641686
292 1 1 6.07963 18.3447 1.32877
287 1 1 6.16564 18.5751 0.261438
55 1 1 7.8083 18.0628 2.44669
6822 1 1 8.56532 16.6931 0.0306027
496 1 1 9.38187 17.72 0.712178
224 1 1 10.6299 18.6937 0.257652
7713 1 1 12.3274 18.2099 0.133916
343 1 1 13.5584 0.168102 0.817494
2661 1 1 14.0508 16.8131 0.996339
31 1 1 14.5353 0.487608 0.205111
7149 1 1 14.1853 18.5176 1.54691
1110 1 1 15.8469 0.097021 37.1101
1785 1 1 15.5364 18.396 1.61477
843 1 1 16.8588 16.9133 0.509164
847 1 1 1.18484 18.4516 2.2388
47 1 1 1.2473 1.06235 2.45431
7647 1 1 0.506052 0.83777 1.74658
399 1 1 4.48202 0.876606 1.7151
1327 1 1 2.85574 0.768587 2.28791
860 1 1 3.94983 18.3146 3.67867
487 1 1 4.24127 0.359145 2.76814
480 1 1 6.19191 1.5388 3.946
450 1 1 7.89185 0.741146 1.8962
7996 1 1 6.75788 0.599804 2.87922
6851 1 1 7.51244 17.6123 1.31388
1658 1 1 9.59167 0.8084 1.60582
887 1 1 10.514 18.7389 2.38491
543 1 1 12.6499 1.31768 2.017
1344 1 1 13.6614 0.15075 2.91369
576 1 1 17.3245 0.678362 2.32907
7930 1 1 15.9512 1.67887 1.41258
745 1 1 0.202962 2.49177 1.17414
328 1 1 18.2428 1.22195 1.42067
762 1 1 18.6133 3.02886 2.20815
115 1 1 2.0416 2.93374 2.48886
445 1 1 4.22697 1.41916 2.79673
7284 1 1 4.16594 2.02154 1.91106
2046 1 1 5.18836 2.00581 2.44277
611 1 1 4.47101 2.56794 2.82983
6986 1 1 6.71191 2.72312 3.34144
7215 1 1 7.0254 2.1885 2.28163
566 1 1 7.72571 1.82944 1.41607
7785 1 1 10.1393 1.56885 1.85427
505 1 1 11.0078 1.30673 1.13922
385 1 1 10.3309 2.69906 2.8589
1213 1 1 12.1405 2.15616 2.93222
7844 1 1 14.8309 1.89283 1.65232
1670 1 1 14.886 3.34395 2.88955
511 1 1 16.9558 2.17358 1.52903
1634 1 1 17.9583 1.91561 2.78658
7440 1 1 18.0705 2.2579 1.322
7669 1 1 16.2751 1.8131 2.34478
1231 1 1 18.6763 0.874812 2.73184
966 1 1 0.706839 3.38866 2.84188
6882 1 1 3.08912 3.42658 3.2068
479 1 1 3.90938 3.48549 2.42251
318 1 1 3.08329 1.86376 1.9565
7251 1 1 4.95936 4.42669 2.01253
1331 1 1 5.67023 3.24566 3.37628
527 1 1 6.25256 5.06436 1.28054
7532 1 1 7.09661 3.45799 1.308
6767 1 1 6.30626 4.67033 3.79273
6659 1 1 8.14343 3.00872 1.29868
2348 1 1 7.25796 3.21641 2.5969
886 1 1 9.84731 3.59385 2.31111
91 1 1 10.8675 4.22627 2.25044
1004 1 1 12.1482 2.91306 0.965052
7246 1 1 14.4203 3.2928 1.91773
581 1 1 13.4021 4.70612 3.1715
1473 1 1 14.7672 4.36692 2.68374
18 1 1 16.7874 3.26675 1.3489
537 1 1 15.9746 4.09771 2.61852
6648 1 1 18.4051 3.2028 1.13381
35 1 1 0.20354 3.92824 1.64629
1265 1 1 0.767252 4.73791 3.51253
7966 1 1 0.117847 5.00461 1.81288
406 1 1 2.15621 4.23567 2.94595
835 1 1 4.90763 5.50381 1.65708
1287 1 1 4.20853 5.06963 2.63301
548 1 1 6.73543 6.01394 1.51827
5739 1 1 8.9701 4.44327 3.33148
1466 1 1 7.39041 5.23742 2.05644
661 1 1 8.39697 3.1751 3.05165
464 1 1 8.56059 4.38453 1.73089
1379 1 1 8.14063 5.2119 2.92294
7611 1 1 11.5963 5.87467 0.668836
7666 1 1 11.5011 4.94294 2.04235
6541 1 1 13.2278 3.09125 1.85412
7468 1 1 16.0112 4.94583 1.96342
2432 1 1 15.8341 5.07861 4.9005
6762 1 1 18.5086 5.17237 0.771026
1983 1 1 17.0202 5.50232 2.47883
651 1 1 18.0235 4.36096 2.70724
2110 1 1 0.967042 8.57602 3.0756
206 1 1 0.79985 7.35565 2.68686
1766 1 1 2.0134 4.79508 1.60662
1158 1 1 3.89379 6.06151 3.50789
7879 1 1 7.24213 7.05214 1.90391
158 1 1 5.75708 6.11333 2.00921
585 1 1 8.85511 5.99959 2.94928
623 1 1 10.2459 6.2228 2.38869
7096 1 1 9.32497 6.16342 1.81723
2103 1 1 11.6393 6.96699 1.23722
934 1 1 12.2492 5.64969 2.51602
7904 1 1 11.8796 5.1168 3.3914
1833 1 1 14.0192 5.69114 1.74149
6316 1 1 12.2435 6.61949 2.74011
7758 1 1 15.4158 5.82113 3.87564
431 1 1 16.0095 6.00841 2.97654
7679 1 1 16.781 5.54495 0.620791
34 1 1 18.7611 5.37436 3.00515
190 1 1 0.0448804 6.61894 2.07764
1318 1 1 1.2028 8.58577 1.47893
1113 1 1 2.54274 7.17407 2.87907
408 1 1 3.33848 8.325 3.1553
565 1 1 2.30821 7.85105 2.17606
7683 1 1 4.2839 8.11977 2.16819
532 1 1 6.84332 8.69781 0.681562
7921 1 1 7.36148 8.07278 1.35083
7862 1 1 6.20993 7.27434 2.30882
570 1 1 9.10025 7.79973 2.36296
7002 1 1 10.1075 9.19907 1.33015
697 1 1 9.08186 6.93607 3.47004
7422 1 1 11.1198 7.13766 3.09864
1330 1 1 12.168 7.64074 1.87429
193 1 1 12.136 8.86087 2.13114
1262 1 1 11.3653 6.3601 2.19761
498 1 1 15.3228 7.74344 1.27199
271 1 1 15.6037 5.77319 1.46521
1000 1 1 16.2547 6.31905 1.85324
6675 1 1 16.1762 8.45665 3.13064
6875 1 1 18.0141 8.03381 1.43544
996 1 1 1.74743 10.9647 3.65232
1105 1 1 1.46897 9.74441 3.14752
289 1 1 1.86262 10.2474 0.935935
7967 1 1 2.75092 9.08828 1.79269
7248 1 1 3.61677 9.64525 2.77102
1093 1 1 4.7156 10.8426 1.78907
627 1 1 5.30569 10.543 0.756301
541 1 1 6.42846 9.05635 1.67338
2065 1 1 8.20862 9.48333 2.78583
1648 1 1 6.93969 9.23508 2.75238
7953 1 1 10.4947 9.16504 2.45709
955 1 1 8.82152 10.1726 3.27146
615 1 1 10.2194 8.09937 2.46639
188 1 1 11.7839 9.89046 2.44223
276 1 1 13.0503 8.00972 2.07401
676 1 1 13.4433 9.34409 2.64784
223 1 1 15.7417 9.15083 0.922185
960 1 1 14.3153 8.5836 2.69871
1863 1 1 17.6213 9.1184 2.28481
536 1 1 16.8443 9.11142 0.933127
1870 1 1 16.5328 9.75832 1.9302
1728 1 1 18.3765 9.93417 1.67868
7845 1 1 2.10076 10.2196 1.8828
7474 1 1 0.427184 11.5627 1.62665
590 1 1 2.62869 10.2615 2.77078
715 1 1 2.16067 11.8598 3.41391
7326 1 1 3.34754 10.482 1.87933
7576 1 1 5.48839 11.8463 1.51816
925 1 1 5.24939 10.6207 2.59905
970 1 1 6.06715 11.1776 1.8804
825 1 1 7.38626 10.7015 2.6548
2418 1 1 5.85983 9.92657 2.01139
7531 1 1 7.54429 9.23745 1.64453
699 1 1 8.55804 11.2245 1.5834
1784 1 1 10.2144 10.6608 2.71315
7538 1 1 11.0728 11.4763 2.71129
7536 1 1 10.8585 10.5525 1.94666
610 1 1 12.358 11.029 2.9645
7851 1 1 12.5148 11.4193 1.14332
1533 1 1 13.5436 10.1357 2.09319
433 1 1 11.6483 9.72985 1.38137
285 1 1 14.3736 10.3083 3.64548
146 1 1 18.1773 11.2963 1.20848
7480 1 1 17.8681 10.9548 3.22472
1637 1 1 0.561172 10.5807 2.10887
967 1 1 0.405032 12.9686 2.59401
7249 1 1 2.64148 12.0821 1.56274
647 1 1 4.66812 13.5195 1.02826
7482 1 1 3.5665 11.3727 2.39454
7376 1 1 5.10246 12.8846 2.20117
1163 1 1 4.0915 13.4162 1.98075
1417 1 1 5.33624 11.7762 3.13102
374 1 1 6.04528 12.2753 2.39194
277 1 1 6.9701 11.619 2.02625
64 1 1 7.9336 11.9299 2.56804
1908 1 1 9.19019 13.7326 2.7055
1542 1 1 9.7018 11.2207 1.16376
7545 1 1 11.5264 12.3373 2.36218
6832 1 1 12.547 12.0177 2.04148
574 1 1 14.634 12.1856 1.71776
234 1 1 16.3391 11.5041 2.62182
683 1 1 15.1415 11.376 2.35098
7867 1 1 17.4772 11.2267 2.04492
300 1 1 18.7605 11.2047 2.94249
757 1 1 1.88928 14.1535 2.34537
688 1 1 3.62954 12.4365 1.37884
8000 1 1 3.2131 13.4037 1.09223
1561 1 1 4.07944 14.1471 2.80976
7403 1 1 5.94871 13.45 3.05894
1210 1 1 7.0644 12.6178 2.60047
815 1 1 6.44268 14.3043 3.56015
227 1 1 10.5962 13.0133 2.32023
872 1 1 12.0881 13.1427 1.70068
7990 1 1 10.6419 14.1086 3.78574
6750 1 1 15.9082 13.419 1.75751
6824 1 1 16.0301 13.3674 0.516444
6720 1 1 17.7024 13.9072 2.31157
7350 1 1 18.5811 12.4716 1.94612
7849 1 1 0.550458 15.5755 1.71121
643 1 1 1.02032 16.5547 2.83209
2837 1 1 1.57302 14.7197 3.07817
7561 1 1 2.45273 15.1922 2.2295
1638 1 1 3.41505 15.5614 2.6483
1531 1 1 3.53904 15.0258 1.77881
154 1 1 4.30816 15.7021 1.6207
584 1 1 4.92199 14.2714 3.46108
1047 1 1 6.09255 16.396 3.18647
1178 1 1 7.37596 14.9216 1.72871
286 1 1 10.3131 14.3334 2.03714
823 1 1 8.91788 14.188 1.73768
1170 1 1 11.6522 15.3296 2.23075
1706 1 1 12.4396 12.8532 4.29848
423 1 1 12.6997 14.3997 2.04813
22 1 1 13.8229 15.099 2.10375
2345 1 1 13.8714 13.6777 1.92467
1042 1 1 15.5874 15.8289 1.90539
6535 1 1 14.3582 14.0298 0.699159
425 1 1 16.4273 14.4039 1.8807
375 1 1 16.7844 15.6333 2.37297
6905 1 1 16.4984 15.4974 1.20114
1567 1 1 16.6679 13.6772 2.67194
163 1 1 18.8332 14.539 2.23329
7811 1 1 18.1226 16.2235 2.49685
6592 1 1 18.2642 16.4086 0.443759
2367 1 1 18.6634 17.5122 1.53204
7999 1 1 18.5588 16.2526 1.58968
608 1 1 0.960209 17.4518 2.24488
1146 1 1 2.28057 15.7112 3.15117
682 1 1 2.00937 16.3277 2.05615
1140 1 1 3.78544 17.424 1.1169
834 1 1 4.12307 17.2688 3.70928
1453 1 1 4.87521 17.5863 1.44154
7180 1 1 5.43227 16.6008 1.06838
1328 1 1 4.52304 16.9532 2.43084
7926 1 1 5.22582 16.171 2.48127
7698 1 1 5.90896 17.0115 1.95346
141 1 1 7.96562 16.0934 2.44285
7700 1 1 10.0172 15.2159 2.55167
6027 1 1 10.6824 16.1202 1.45594
1133 1 1 10.0975 17.0686 2.5109
726 1 1 12.3293 14.9192 2.97976
7987 1 1 12.4979 16.3418 2.01454
1590 1 1 13.2233 16.4052 3.3917
1200 1 1 17.3073 17.4218 2.79382
7163 1 1 16.3623 16.5791 2.88535
7188 1 1 0.133064 18.0388 2.57413
7968 1 1 2.54856 18.0576 1.43877
7887 1 1 1.88186 18.2211 2.96127
7581 1 1 5.17757 18.5404 1.88327
1094 1 1 3.37821 17.9163 2.48858
7119 1 1 4.39294 18.1252 2.49195
2824 1 1 5.96773 1.14066 2.71223
7503 1 1 5.91722 0.420215 2.04595
1582 1 1 8.47861 16.842 1.92321
841 1 1 9.06843 17.5942 2.49977
814 1 1 9.92604 18.6683 1.0547
7588 1 1 9.69566 18.5745 3.35911
708 1 1 10.4253 17.6419 0.570726
7745 1 1 11.3942 17.6372 2.6128
2020 1 1 11.05 0.243167 1.45367
421 1 1 13.8238 17.8158 2.95486
788 1 1 15.588 17.3877 2.19895
33 1 1 17.4481 17.7587 0.971962
525 1 1 15.7314 0.957651 0.556194
7903 1 1 18.492 0.0947605 2.13027
310 1 1 0.75474 1.09123 4.2589
552 1 1 1.08186 0.226967 3.46861
915 1 1 2.07864 1.14117 3.28477
7123 1 1 5.54518 0.420843 3.52438
293 1 1 6.11193 18.3781 4.34723
1488 1 1 5.29893 0.436269 4.65015
96 1 1 8.27251 1.01955 4.16184
7535 1 1 7.22967 0.369191 3.96788
1339 1 1 8.92638 0.214616 2.52753
7619 1 1 8.21287 0.252243 3.45709
239 1 1 9.14317 18.2273 4.37235
7616 1 1 8.81681 1.47765 2.08097
700 1 1 10.7738 0.608515 3.11991
7478 1 1 12.2676 0.324486 2.70585
6673 1 1 11.9601 0.229113 4.03519
7155 1 1 11.7694 0.6128 5.15574
1992 1 1 13.8375 1.13477 4.43475
671 1 1 12.9147 0.852508 4.77576
383 1 1 15.2378 1.65459 2.98558
1229 1 1 15.9761 1.88911 5.5257
7914 1 1 16.1256 0.973321 4.06086
7549 1 1 15.1034 0.361034 3.16343
1020 1 1 16.8113 1.85804 3.35873
558 1 1 17.3858 0.655727 3.84792
1223 1 1 17.8432 0.412276 4.66601
727 1 1 2.93298 1.35365 3.90976
1373 1 1 1.70144 1.49225 4.37292
7754 1 1 5.32222 1.40801 3.47943
2126 1 1 8.37563 1.91913 2.91654
593 1 1 9.48565 1.4614 3.26512
528 1 1 11.0116 1.6138 3.48873
7287 1 1 13.1416 1.79986 3.91532
180 1 1 11.709 1.33311 4.2076
906 1 1 14.6457 2.44244 3.26144
636 1 1 15.8221 2.3646 4.06535
874 1 1 16.4198 3.23736 4.04744
6975 1 1 0.809052 3.72763 3.99138
1202 1 1 3.87533 4.2761 3.58409
2365 1 1 3.79096 3.19449 4.35379
936 1 1 3.61962 2.60169 3.33811
1376 1 1 5.4138 2.40371 3.87825
7648 1 1 6.84359 3.63366 4.07771
1378 1 1 7.75048 2.55419 3.65749
1309 1 1 7.9114 4.1521 3.4871
890 1 1 8.69145 3.78509 4.21773
1416 1 1 8.93654 2.92148 2.26692
173 1 1 12.1943 2.77392 3.82246
7250 1 1 13.205 2.84636 3.54297
1826 1 1 13.8288 3.7016 3.65569
1336 1 1 15.4805 3.65629 3.86132
7776 1 1 16.3652 4.38266 3.94784
1672 1 1 17.4694 3.37262 4.10384
148 1 1 16.663 3.13368 2.75335
1718 1 1 1.44868 2.24408 3.68328
7122 1 1 0.302971 2.39676 3.36835
7950 1 1 18.6403 4.10723 3.538
62 1 1 2.10574 3.36957 3.84913
580 1 1 2.75081 5.66499 3.02819
1409 1 1 5.01157 4.33314 3.52036
358 1 1 4.7389 3.32945 4.00229
440 1 1 5.47375 5.27058 4.0387
1809 1 1 7.24987 4.92697 3.92702
488 1 1 8.23381 5.80203 3.83223
1076 1 1 9.85279 5.34686 3.56803
469 1 1 9.34147 4.63774 4.33126
140 1 1 10.3606 4.80779 4.69306
2736 1 1 10.6063 4.39919 3.6882
7625 1 1 9.91848 4.82736 2.57786
1377 1 1 12.9874 3.64082 2.69326
2305 1 1 11.3645 3.52707 2.93204
958 1 1 13.0553 5.07033 1.93431
850 1 1 12.8951 5.42878 4.02249
1438 1 1 14.6182 5.79949 4.68434
1348 1 1 17.1098 5.1444 3.48381
2071 1 1 17.9805 4.78041 4.09596
913 1 1 0.939209 6.45116 3.11089
481 1 1 0.0988248 6.50669 4.26503
928 1 1 2.95434 6.18154 4.16149
98 1 1 2.0885 6.68033 4.11643
983 1 1 4.6803 5.97455 4.21464
114 1 1 3.54706 7.12345 3.31722
1427 1 1 5.31768 7.02404 3.89225
7718 1 1 5.8191 4.88898 2.56233
1052 1 1 6.58847 5.67549 3.8918
7138 1 1 6.54897 5.9682 2.96679
7823 1 1 7.71902 6.64571 4.35179
1051 1 1 7.94886 7.72455 3.90085
153 1 1 9.73399 6.77497 4.57665
557 1 1 12.1806 7.22231 3.88234
1759 1 1 10.8124 5.92967 3.7176
1070 1 1 13.1619 6.40277 4.13014
387 1 1 12.3091 4.36098 2.79061
7273 1 1 12.8104 7.42937 3.10818
2197 1 1 14.086 7.25803 3.43133
470 1 1 14.4087 5.32995 3.29945
1925 1 1 14.092 6.68909 4.3008
602 1 1 16.7603 6.87681 3.18541
1939 1 1 15.2731 6.84312 4.18732
7444 1 1 15.7793 7.45473 2.19163
1275 1 1 17.5761 7.51678 4.49947
144 1 1 17.6082 6.08451 4.34528
1793 1 1 18.683 7.12605 3.33209
1709 1 1 18.1641 6.81418 4.95288
959 1 1 0.0522331 9.24785 2.27871
1596 1 1 1.97178 8.33448 3.50071
7395 1 1 2.66889 7.85332 4.41795
403 1 1 2.71259 8.5829 5.35755
1475 1 1 5.41632 7.93058 4.08576
1883 1 1 4.87048 6.25223 3.02623
7659 1 1 5.10769 7.27789 2.44248
45 1 1 6.19957 8.52822 4.54199
1177 1 1 6.76659 8.00757 3.66639
7701 1 1 4.72894 9.01325 3.19484
1301 1 1 7.96758 8.24377 2.76821
1008 1 1 9.23339 8.81008 4.21056
980 1 1 10.1577 7.43107 3.40873
7654 1 1 11.1852 7.17583 4.23103
519 1 1 13.2617 8.6095 3.26465
1478 1 1 15.0015 8.68889 4.2518
1441 1 1 14.4455 7.35218 2.18669
736 1 1 16.052 9.27613 3.78019
1631 1 1 17.495 7.28882 2.70587
1715 1 1 16.9166 8.62154 4.3397
628 1 1 16.3622 7.52264 4.06068
1942 1 1 17.1318 8.41687 2.95468
2239 1 1 0.469188 8.88146 3.90048
1917 1 1 2.60825 9.21697 2.97251
2084 1 1 3.48864 8.89397 4.23036
7791 1 1 4.28023 9.42521 1.88395
1003 1 1 3.79649 10.3441 4.85023
344 1 1 5.85028 9.44749 3.00069
345 1 1 8.01195 10.8736 3.80522
1001 1 1 7.773 9.41145 3.74051
1649 1 1 9.78158 7.70749 4.83809
7461 1 1 10.1528 8.59152 3.37507
231 1 1 11.2462 8.28571 2.77404
241 1 1 10.9464 9.88016 3.16872
944 1 1 13.8051 8.2896 4.32172
1422 1 1 15.0672 10.3047 2.59205
108 1 1 16.568 9.89911 3.18422
1350 1 1 17.9827 9.01149 3.2795
6972 1 1 18.1147 10.1463 2.7418
667 1 1 0.011503 10.0433 3.43646
7603 1 1 0.821296 11.2806 3.62895
1878 1 1 2.30559 12.363 4.67521
7805 1 1 3.4679 11.5306 3.49709
6683 1 1 4.32303 11.9623 2.11349
639 1 1 3.94119 10.4558 3.42311
478 1 1 5.54823 11.7957 4.70859
290 1 1 6.17386 10.4106 3.08257
3250 1 1 9.76653 9.76561 2.89306
1069 1 1 8.36036 9.04138 4.69038
1530 1 1 7.95832 12.0828 4.62594
1825 1 1 9.19002 12.6644 2.4543
136 1 1 10.055 11.6084 4.66056
1175 1 1 11.3988 11.1896 4.56361
2062 1 1 11.5116 10.4172 3.96403
1460 1 1 12.8335 9.95504 3.38326
638 1 1 14.6351 10.0505 4.67083
1537 1 1 13.321 10.9362 3.5208
1183 1 1 15.6409 10.7233 3.99704
1189 1 1 14.2228 11.297 3.28265
790 1 1 17.8376 10.1043 4.15405
1965 1 1 17.5369 11.27 4.21729
877 1 1 1.02355 11.8192 2.78747
1968 1 1 1.21864 12.7624 3.34873
6563 1 1 2.09914 13.8198 3.30278
1128 1 1 3.54351 12.5233 2.6542
1445 1 1 2.02192 13.1351 2.47866
2748 1 1 3.16602 13.609 3.59958
1486 1 1 4.34898 12.0588 3.24428
365 1 1 5.38761 12.7992 4.07
684 1 1 6.73439 12.3968 4.53076
1046 1 1 6.85381 12.3285 3.55119
1224 1 1 9.17792 11.4368 3.02195
1103 1 1 11.1223 11.5604 1.1289
1357 1 1 9.31334 11.9877 4.11859
1112 1 1 11.9493 11.8653 3.38974
386 1 1 13.3976 12.0477 2.7133
7858 1 1 14.4839 12.2916 2.93732
6599 1 1 15.617 12.8542 2.63919
1107 1 1 15.1842 13.4276 4.22157
235 1 1 16.8426 10.9144 3.6122
7052 1 1 16.7901 12.464 2.6612
7993 1 1 16.2718 12.9207 3.75381
265 1 1 16.8621 10.5146 4.52211
1005 1 1 17.9428 12.1435 2.68009
6674 1 1 0.541063 12.0828 4.43753
1276 1 1 18.6084 11.4645 3.94853
724 1 1 1.24817 12.9722 4.54105
85 1 1 3.01047 13.8617 2.50269
336 1 1 1.02481 13.8512 3.21116
325 1 1 4.67947 13.3183 3.09781
1958 1 1 2.80014 13.2401 4.55677
1504 1 1 6.2875 13.2764 4.00246
7464 1 1 7.55445 13.274 3.44503
7620 1 1 9.03797 14.8572 2.87266
2425 1 1 9.80388 14.1451 4.34382
1545 1 1 8.65537 12.5601 3.51304
1174 1 1 9.99804 12.8982 3.59892
7550 1 1 11.0069 12.7621 3.24669
7040 1 1 13.8039 12.9991 2.65831
1187 1 1 13.2098 13.922 4.341
389 1 1 15.0978 13.695 3.04621
2414 1 1 13.2433 14.4883 2.97749
670 1 1 18.444 15.2886 3.00266
7515 1 1 17.6806 14.5668 4.47775
6719 1 1 17.3749 13.6387 3.5264
306 1 1 18.7999 12.6549 3.58802
712 1 1 17.2583 13.0464 4.45949
2358 1 1 18.3024 13.9766 3.21139
1086 1 1 1.42406 15.4792 3.66598
393 1 1 0.773166 15.2584 2.71069
1173 1 1 2.12946 15.2691 5.13492
7840 1 1 3.5711 14.9595 3.84203
971 1 1 3.73784 15.8249 4.39219
260 1 1 4.04266 13.9984 4.02824
1912 1 1 6.90688 15.5191 2.7791
1266 1 1 6.04867 14.705 4.44829
1932 1 1 6.25471 16.1863 4.56199
7984 1 1 8.14697 14.2007 2.85772
504 1 1 8.02629 15.2194 2.89278
411 1 1 8.80502 16.0308 3.23682
468 1 1 9.15621 15.0421 4.24526
2224 1 1 12.9002 15.3959 3.78908
7855 1 1 14.0128 15.1901 3.15281
1474 1 1 15.8441 14.9642 3.28113
1916 1 1 15.5359 14.8461 2.16679
982 1 1 15.2881 14.6649 4.28682
1087 1 1 16.2722 13.9749 3.66551
1234 1 1 16.7808 14.8991 3.07905
853 1 1 0.427611 16.138 3.61134
2776 1 1 18.0629 16.7101 3.71473
2033 1 1 0.112671 17.0463 2.60619
809 1 1 1.22392 16.4662 4.78883
728 1 1 2.98172 16.4881 2.79579
7957 1 1 4.27245 16.6482 4.60123
902 1 1 4.03299 16.1207 3.37887
1485 1 1 4.66119 15.3507 3.0999
937 1 1 5.25663 17.0748 3.40909
1179 1 1 5.24354 16.2911 4.60803
391 1 1 7.06219 15.782 4.11605
394 1 1 6.35709 17.034 3.98209
1527 1 1 5.04386 15.2818 4.06
1500 1 1 7.83166 16.36 3.47651
460 1 1 9.28871 16.0975 4.92247
7176 1 1 9.00484 17.1586 3.96194
256 1 1 11.3873 14.8956 3.42066
781 1 1 9.81514 16.5865 3.45434
7230 1 1 12.1364 17.0893 3.03015
818 1 1 13.9136 16.0145 4.17379
2150 1 1 14.8468 16.559 2.25217
1167 1 1 12.7834 17.7143 4.69244
1119 1 1 15.7221 17.2276 3.433
443 1 1 16.9584 16.3599 3.62187
1539 1 1 16.6599 17.5789 3.6289
990 1 1 16.6584 18.3815 4.67412
1149 1 1 17.8839 15.6546 3.68983
1007 1 1 17.6382 17.665 4.00794
2471 1 1 0.710476 18.1009 4.15002
397 1 1 1.99322 18.6116 4.10664
1198 1 1 1.35474 17.5186 3.52862
1514 1 1 2.6271 16.8719 3.86691
2285 1 1 4.92444 18.4348 3.50189
7197 1 1 4.83641 17.4738 4.28641
7613 1 1 5.67397 18.2542 2.85199
829 1 1 6.9534 18.2864 3.37858
3576 1 1 8.18963 17.3239 3.15956
94 1 1 8.75098 18.1374 3.30616
1687 1 1 7.96275 18.4105 4.90597
885 1 1 10.6132 17.9723 3.76667
2270 1 1 12.3946 18.3785 3.34468
149 1 1 14.2153 16.8265 3.66144
7911 1 1 16.3651 0.851327 2.86429
7 1 1 16.8119 18.7813 3.29822
785 1 1 0.00126593 18.7433 5.42625
427 1 1 18.4377 18.5402 3.26814
1205 1 1 18.7393 0.182206 4.19472
430 1 1 2.45892 18.804 5.02354
845 1 1 2.51966 0.911265 4.7514
105 1 1 4.64743 0.718521 3.94384
1367 1 1 3.60606 0.991072 4.64088
894 1 1 3.54369 0.124447 5.27567
1442 1 1 4.41753 0.754841 5.38686
7896 1 1 5.5889 1.08995 5.48453
1776 1 1 6.12399 0.11028 5.44598
2176 1 1 7.00345 1.07993 4.91415
209 1 1 8.03442 1.55709 5.08128
7762 1 1 7.14997 0.0924884 5.4362
7997 1 1 10.7055 0.723784 5.16923
1505 1 1 10.616 0.352177 4.18018
7989 1 1 10.7768 1.84207 5.02606
553 1 1 11.9858 1.79478 5.10688
1587 1 1 12.8685 18.5787 5.32788
946 1 1 14.925 0.839987 4.03751
859 1 1 13.2438 0.264714 3.80336
870 1 1 14.1398 0.237779 5.12327
1999 1 1 15.4065 0.219973 4.77285
7601 1 1 18.6411 1.15523 5.52
2681 1 1 0.940664 0.564391 6.19746
954 1 1 1.58294 0.866693 5.50813
547 1 1 3.11134 1.81196 5.09651
1279 1 1 4.04556 2.09463 5.18185
951 1 1 5.02832 2.04009 5.81804
1355 1 1 6.26039 1.77758 4.98812
1852 1 1 7.47196 1.31876 3.17354
1181 1 1 7.66544 2.43851 6.10457
2054 1 1 9.01997 2.55151 5.01088
824 1 1 8.98921 2.52737 3.6202
587 1 1 9.85123 1.55943 6.19243
3337 1 1 9.25187 1.40453 5.08415
1308 1 1 10.6675 3.27147 4.72426
1749 1 1 9.59906 0.460803 4.36928
1317 1 1 11.5526 2.7493 5.30719
1203 1 1 12.7596 2.4513 4.73007
1661 1 1 14.7712 1.54017 4.93798
1755 1 1 13.5316 2.0844 5.33815
780 1 1 15.4136 3.61327 4.98234
1345 1 1 14.7025 2.77184 5.07835
7044 1 1 15.5055 2.76098 5.83508
409 1 1 14.8675 1.66482 6.14993
2323 1 1 16.5978 2.02761 4.57639
151 1 1 17.5555 1.8234 4.08652
109 1 1 18.1615 1.3236 4.73603
139 1 1 0.929227 2.65934 4.57396
412 1 1 2.60412 2.82364 6.07644
7028 1 1 2.8121 3.51773 5.06898
1930 1 1 4.01002 1.91312 3.93053
848 1 1 5.4968 4.09963 5.63748
656 1 1 4.94562 1.74052 4.5203
1323 1 1 5.95616 3.08675 4.72
1255 1 1 7.16973 1.8029 4.19065
7843 1 1 6.95726 5.47363 5.48551
2397 1 1 5.97266 4.09418 4.77534
1089 1 1 5.60841 4.43214 6.62028
492 1 1 9.70544 2.94181 4.20925
7219 1 1 6.9765 3.40007 5.2013
1039 1 1 9.99217 1.55948 4.15051
2139 1 1 11.005 3.27631 6.60861
898 1 1 9.73092 3.91482 5.06102
32 1 1 13.0156 4.07095 4.8989
1044 1 1 14.3682 2.64168 6.19467
7827 1 1 13.8183 2.71072 4.35581
591 1 1 14.6184 4.4363 3.88695
1413 1 1 16.1594 2.98555 5.13327
1395 1 1 17.1707 3.45539 6.22149
1338 1 1 17.2295 3.40693 5.21794
155 1 1 0.638602 5.69207 4.07125
6804 1 1 0.644295 5.15152 5.53321
1717 1 1 1.33738 4.35101 4.6867
1241 1 1 2.18216 4.08927 6.27023
7661 1 1 4.58727 3.95538 4.82758
729 1 1 5.00431 6.18191 5.18933
1159 1 1 5.839 5.75438 5.63128
1280 1 1 7.41127 7.02837 5.41541
1099 1 1 6.85304 5.78882 6.6889
454 1 1 7.49918 4.27269 4.85473
1664 1 1 11.4276 4.34385 5.18793
6463 1 1 11.8084 6.2155 4.16733
2221 1 1 11.3704 5.07625 4.30237
985 1 1 11.9594 4.02208 3.7885
7712 1 1 13.6995 4.84293 4.69341
2392 1 1 15.4386 6.0026 5.48326
2075 1 1 14.2018 3.7623 4.67119
914 1 1 17.1251 5.01099 4.65578
6443 1 1 18.5802 3.5103 4.50617
7228 1 1 17.9707 4.07882 5.18234
1538 1 1 0.924142 7.28973 5.09554
1443 1 1 2.95718 3.94986 4.08091
7651 1 1 1.40873 6.19321 5.16587
523 1 1 2.10181 7.17789 5.22112
1543 1 1 4.23253 5.42007 4.85254
1754 1 1 3.73114 6.86871 4.68839
1410 1 1 3.52411 7.52683 6.66099
1802 1 1 5.92121 7.0619 4.62642
904 1 1 7.22637 7.68537 6.1026
571 1 1 8.72107 7.02635 4.38149
177 1 1 8.47945 5.57635 4.91794
6627 1 1 9.28858 5.84246 5.45826
685 1 1 10.1693 6.0571 6.6028
1724 1 1 9.77201 6.75145 5.59911
102 1 1 12.562 6.82087 5.28754
1519 1 1 11.2057 6.57051 5.79571
281 1 1 12.9349 5.54421 5.34223
1291 1 1 13.8454 5.89202 5.83096
908 1 1 14.898 6.48735 6.28668
7804 1 1 16.1772 6.56434 4.92956
7352 1 1 14.7672 7.46367 4.93082
2645 1 1 15.4672 7.66903 3.41716