ITEM: TIMESTEP
3300
ITEM: NUMBER OF ATOMS
8000
ITEM: BOX BOUNDS pp pp pp
0.0000000000000000e+00 1.8820720577620570e+01
0.0000000000000000e+00 1.8820720577620570e+01
0.0000000000000000e+00 3.7641441155241139e+01
ITEM: ATOMS id mass type x y z
7930 1 1 0.40654 1.64838 1.79872
148 1 1 1.67865 1.59573 1.79102
445 1 1 3.82308 0.700679 37.5595
7604 1 1 2.33126 0.172149 0.942823
194 1 1 1.36927 1.60655 0.597861
350 1 1 5.67286 0.980292 37.0281
249 1 1 4.57518 0.693244 1.01585
7964 1 1 6.83129 18.5004 1.38588
1206 1 1 8.11924 1.38103 37.6168
487 1 1 5.96604 0.758723 0.670742
7416 1 1 7.23219 0.875631 36.9313
6017 1 1 8.89849 0.770544 1.17765
7680 1 1 8.86018 18.6113 36.0197
1196 1 1 8.79129 0.951489 36.9307
343 1 1 10.6204 18.4928 37.2891
7994 1 1 10.9107 18.5378 1.25824
6399 1 1 14.008 0.381697 0.75109
7547 1 1 15.4246 18.0234 1.72322
383 1 1 15.9887 0.174065 1.09966
432 1 1 16.5266 0.606406 0.162541
7265 1 1 18.6339 0.72346 1.79522
1964 1 1 16.9028 18.3139 36.6089
420 1 1 17.5361 1.11546 0.604723
18 1 1 1.27503 3.43245 1.27908
7690 1 1 1.12147 2.57373 0.768948
402 1 1 2.31242 1.2239 0.65774
399 1 1 3.62113 1.85271 37.5141
7919 1 1 6.4787 2.63227 0.546193
6851 1 1 7.65275 1.94136 1.41255
7267 1 1 5.40792 1.66456 0.257979
886 1 1 6.97927 2.73692 1.79841
527 1 1 6.27263 3.93856 1.35743
529 1 1 10.3541 3.31464 0.206069
6703 1 1 9.26103 1.71096 37.5377
7287 1 1 12.1439 1.40785 1.43043
356 1 1 14.3745 2.08906 37.5507
6617 1 1 11.0547 1.66671 37.296
1269 1 1 14.6673 0.594047 37.318
1110 1 1 15.57 1.18348 0.503695
508 1 1 17.4258 3.0389 0.0829542
73 1 1 16.0939 3.48339 0.264367
7972 1 1 1.74871 4.43063 1.45285
75 1 1 18.4812 3.85447 37.1617
6152 1 1 0.493045 4.4801 0.825637
219 1 1 3.13749 2.96322 0.483491
7236 1 1 1.22187 2.40639 37.1348
7661 1 1 2.52446 4.82135 1.78359
7284 1 1 4.22981 3.46367 0.598978
5739 1 1 5.60122 4.99568 2.15034
7261 1 1 3.63853 2.76152 1.28603
3 1 1 5.4218 3.76375 0.729054
7251 1 1 4.84646 3.88565 1.60858
7300 1 1 5.96691 2.07307 1.58095
7660 1 1 7.70467 2.85919 36.4362
7725 1 1 7.03716 4.62797 1.71408
6986 1 1 7.45951 2.31799 0.511676
1208 1 1 8.34079 3.82404 0.547362
2103 1 1 9.40058 4.08745 1.64939
6657 1 1 9.95576 4.49783 0.664267
7783 1 1 8.68699 2.21636 36.8191
7250 1 1 10.3086 3.42631 1.86104
6463 1 1 11.3728 5.39662 1.9913
505 1 1 11.824 2.28528 0.440447
1380 1 1 11.2087 3.60011 1.34868
787 1 1 12.853 2.00979 37.146
500 1 1 12.7033 2.64094 1.39855
39 1 1 15.4198 2.62687 1.168
7246 1 1 14.02 3.68016 1.01941
2160 1 1 16.4139 4.80613 0.625397
7950 1 1 0.257925 4.57683 1.8906
6823 1 1 17.02 2.93944 36.8439
554 1 1 18.5468 2.89432 0.0605506
34 1 1 18.5524 5.08582 0.900125
479 1 1 1.41474 5.32378 0.815881
1885 1 1 4.35756 4.60421 0.578277
406 1 1 3.49479 5.1851 1.40588
1369 1 1 6.27199 6.1262 2.39574
7663 1 1 6.01278 4.88653 0.759219
497 1 1 6.97852 5.47101 0.709465
542 1 1 8.47718 6.1974 37.1177
228 1 1 8.19611 5.18541 36.1217
7010 1 1 9.17245 5.57014 0.883126
7611 1 1 11.1468 6.71668 2.03267
7422 1 1 10.5487 5.6716 1.40482
7468 1 1 14.1189 6.60346 0.564493
1109 1 1 14.0808 4.43743 37.2405
461 1 1 13.1413 6.07607 37.5188
7444 1 1 15.9305 5.57585 1.38339
1718 1 1 17.5222 5.31673 37.2262
206 1 1 2.15831 6.04359 1.53131
323 1 1 4.65552 6.21798 0.0684542
82 1 1 3.71572 6.50902 37.2401
835 1 1 3.55395 6.93352 2.08262
7803 1 1 5.21155 7.13903 0.00815808
623 1 1 7.3357 7.08023 37.4872
796 1 1 6.72251 6.54626 1.3818
7002 1 1 8.4742 7.00205 2.65889
585 1 1 8.10291 6.67553 1.43539
7826 1 1 9.71627 7.57659 0.412381
7935 1 1 11.7849 6.68087 3.0703
6828 1 1 14.3298 4.52257 1.99878
7937 1 1 14.1184 7.80666 1.02178
308 1 1 15.3526 7.3104 1.9267
7758 1 1 16.906 7.32076 1.23164
7432 1 1 16.5491 3.50757 1.4132
431 1 1 17.7854 7.86253 37.2282
6443 1 1 18.0539 4.84721 2.60256
118 1 1 18.3178 7.59654 0.895645
884 1 1 0.0679027 7.48387 37.1196
1751 1 1 1.13449 8.01529 36.6886
7841 1 1 1.82444 9.01865 1.04501
15 1 1 5.02754 7.87998 1.03617
1314 1 1 2.33885 7.72828 2.11353
7879 1 1 4.23969 6.92386 0.821105
475 1 1 5.92242 7.892 1.94465
7643 1 1 6.2274 7.56603 0.394843
7420 1 1 7.65464 7.52086 0.68315
7625 1 1 10.3649 7.37788 1.65567
53 1 1 9.16062 8.27224 0.776054
304 1 1 8.78814 8.66029 37.1833
697 1 1 8.24484 8.65765 2.52211
188 1 1 12.2641 7.89711 0.438311
193 1 1 12.0608 7.47198 1.70371
557 1 1 13.4043 7.27781 1.62626
1942 1 1 16.4852 8.18621 1.42553
205 1 1 14.6478 8.53456 0.366941
7845 1 1 0.62264 7.75295 1.68876
7641 1 1 16.4437 7.75475 37.3666
7795 1 1 18.2579 8.57229 0.345518
444 1 1 18.3726 9.77192 0.722009
1547 1 1 1.60487 8.69082 37.2108
997 1 1 2.44107 9.58242 0.030539
7322 1 1 4.62129 10.1143 2.17765
573 1 1 4.64765 10.2358 36.5412
532 1 1 6.28814 8.78922 0.937456
1850 1 1 5.67699 9.73189 0.595881
615 1 1 7.90184 8.59809 1.48237
691 1 1 7.42617 11.7635 0.884304
7654 1 1 8.67689 9.89756 1.31314
6136 1 1 9.32071 9.63571 37.3688
7461 1 1 11.3953 9.61625 1.46521
498 1 1 13.7414 8.79004 1.04193
638 1 1 13.8256 9.89315 1.91959
519 1 1 14.7475 8.65979 1.63878
223 1 1 14.8337 10.0919 2.61867
538 1 1 16.4587 8.82931 0.612163
165 1 1 16.762 8.80475 37.1192
190 1 1 18.3341 8.87686 1.42653
7867 1 1 18.7399 10.7935 0.230417
7897 1 1 2.90235 10.6082 37.5138
138 1 1 2.49758 11.2783 0.776729
647 1 1 3.57951 11.0147 1.03649
7967 1 1 3.94675 9.84649 1.44545
1048 1 1 5.43611 10.4756 37.5055
773 1 1 6.43826 10.7209 0.924877
1820 1 1 6.89748 10.185 0.165386
534 1 1 7.37234 11.281 37.4461
973 1 1 11.2337 12.2925 2.88239
699 1 1 9.68284 11.0433 3.07321
7891 1 1 9.5347 10.3928 0.497276
250 1 1 10.6319 10.8602 0.228949
7452 1 1 13.8 9.88468 0.113958
6669 1 1 12.5629 9.70715 1.1037
1000 1 1 15.643 10.1958 1.47085
6599 1 1 16.112 12.1562 1.47008
2234 1 1 15.1104 9.46307 0.373461
1040 1 1 17.881 10.6881 36.8133
7991 1 1 16.4864 10.1863 36.5595
962 1 1 0.804808 12.1278 37.3533
1529 1 1 0.789425 12.6333 0.640161
6604 1 1 1.42357 11.8495 0.537607
203 1 1 4.44722 14.0434 0.783531
215 1 1 4.21462 12.9501 1.27894
7376 1 1 5.23837 12.7958 0.84618
331 1 1 5.27567 11.604 37.6288
1010 1 1 4.42001 12.0808 0.87737
530 1 1 6.25484 11.2476 37.3364
7402 1 1 6.93319 12.1378 37.2837
7864 1 1 8.60974 12.0256 0.0120985
344 1 1 8.35856 12.7915 1.69187
993 1 1 10.8557 12.0053 0.759391
381 1 1 12.1418 12.8132 0.947139
2062 1 1 12.4356 12.8782 2.86433
660 1 1 10.5739 13.6464 37.1789
261 1 1 12.6977 11.3544 37.3139
6997 1 1 14.833 10.352 0.639473
6705 1 1 14.0356 11.9312 0.809256
230 1 1 15.9219 11.1657 0.638157
7348 1 1 14.8781 11.8556 36.9908
7022 1 1 16.0775 12.6435 37.4839
7470 1 1 17.2071 11.8017 0.306519
7479 1 1 18.5336 11.6683 36.8999
7888 1 1 17.9585 13.7431 37.6521
78 1 1 17.8373 12.5533 37.0915
6578 1 1 1.82335 13.1189 0.331149
1282 1 1 1.39365 14.6489 0.0605398
85 1 1 18.6656 14.5778 1.31216
2755 1 1 0.787863 13.6836 0.995067
340 1 1 2.82269 13.4709 35.7895
1136 1 1 3.16919 14.9031 37.4161
1411 1 1 4.31778 14.6565 37.5639
6411 1 1 5.78387 13.4629 0.0245338
7487 1 1 5.43072 13.8389 2.20562
765 1 1 8.49958 12.9107 36.9989
7464 1 1 8.70191 13.2876 2.62696
7545 1 1 9.32233 13.2226 1.61358
1178 1 1 10.1531 13.3866 1.00267
307 1 1 11.8299 14.1984 37.5608
7834 1 1 14.2252 14.0285 1.45632
769 1 1 15.3136 14.3007 1.31765
237 1 1 17.0075 13.0995 37.1912
234 1 1 18.0035 13.3379 2.39122
163 1 1 18.2667 14.1625 2.80641
7934 1 1 2.82967 17.0935 37.5389
7840 1 1 2.04183 14.9682 1.60008
7755 1 1 3.35042 14.4477 35.771
813 1 1 4.68132 15.2618 0.793247
1729 1 1 5.60219 15.1863 1.32407
363 1 1 3.46126 16.2724 37.572
7139 1 1 5.46061 15.1072 0.136017
7610 1 1 7.75586 14.7819 36.6414
1573 1 1 7.31709 15.8392 1.00135
7543 1 1 9.44195 14.7633 1.37216
749 1 1 9.2816 15.9792 0.521495
1170 1 1 11.7922 15.0763 0.841687
7075 1 1 13.3112 14.3618 0.00779465
6822 1 1 10.2952 15.5249 0.89921
7634 1 1 14.0375 16.2174 1.09696
1042 1 1 14.2867 15.4919 1.93255
6720 1 1 16.3948 14.0685 1.26598
7903 1 1 18.6639 17.3059 0.270905
7968 1 1 1.97575 16.264 1.57119
6919 1 1 2.75092 16.2831 36.4553
7180 1 1 5.47731 17.0129 37.1981
7581 1 1 3.8856 17.2051 0.39348
419 1 1 7.24037 15.9244 37.242
7210 1 1 4.78919 16.9294 0.761518
7963 1 1 5.49745 15.626 36.9154
1485 1 1 6.6325 16.0202 2.0634
428 1 1 6.45422 17.1209 1.17692
287 1 1 7.40904 16.8615 2.15991
8 1 1 6.69732 15.1543 0.121745
338 1 1 7.93987 15.0967 37.6119
377 1 1 10.5689 14.7518 0.262474
7856 1 1 8.11971 15.9022 1.93593
7778 1 1 11.1243 16.6731 0.769852
6535 1 1 13.1844 16.3362 0.257743
7898 1 1 14.6742 15.9582 0.234218
7341 1 1 14.401 16.286 37.0253
7913 1 1 15.5133 15.8725 0.897904
22 1 1 13.6788 16.369 2.1065
7787 1 1 16.4523 16.3896 0.0401139
5999 1 1 18.7079 16.0739 1.12505
7390 1 1 16.4602 17.9877 37.5107
2134 1 1 0.694726 0.395331 1.60373
314 1 1 0.635762 0.613336 37.1452
1146 1 1 0.856909 15.7254 0.811609
7081 1 1 1.54781 18.5066 1.40445
1327 1 1 3.91303 0.106377 1.91784
1895 1 1 3.85272 18.2522 1.12899
7212 1 1 2.60134 18.0968 1.62697
397 1 1 1.77978 0.770208 2.84021
37 1 1 5.76154 16.3594 36.3874
1257 1 1 3.87233 17.0943 1.83306
456 1 1 6.30909 17.715 0.0534923
391 1 1 8.41258 16.8569 1.70396
7698 1 1 9.42703 17.9488 1.02152
141 1 1 9.24028 16.3261 2.23177
7975 1 1 7.9273 16.9308 35.4142
700 1 1 10.0738 17.1434 1.85245
820 1 1 12.3435 16.2847 1.01663
2661 1 1 12.4158 17.1543 0.479976
437 1 1 11.7894 18.8098 0.703628
2020 1 1 12.542 0.686276 1.87607
7224 1 1 13.3385 17.522 37.1401
7838 1 1 14.8165 18.4299 36.9464
7887 1 1 17.3516 17.3538 1.40309
785 1 1 18.3007 18.3451 1.49387
847 1 1 18.592 1.13423 3.13306
1713 1 1 17.9459 1.62824 2.3448
7122 1 1 1.00685 2.70839 2.16326
310 1 1 0.954496 1.39458 2.86781
727 1 1 1.42731 1.11852 4.46472
834 1 1 3.29621 0.86638 0.925074
105 1 1 5.2529 0.0959822 1.642
96 1 1 5.78245 1.04667 2.42732
1328 1 1 6.18663 0.0607882 2.66739
7535 1 1 6.53907 0.0643869 3.97566
55 1 1 7.67105 0.570174 0.186809
1381 1 1 8.10879 0.373076 1.79797
2150 1 1 10.8967 0.323711 2.07581
1336 1 1 11.4441 1.64993 2.75686
1213 1 1 12.4724 2.39363 2.53143
7478 1 1 11.7585 0.334266 2.90202
2153 1 1 14.8623 1.02978 3.67348
382 1 1 13.3778 18.7734 2.36168
7844 1 1 13.6956 1.30499 2.41198
7293 1 1 17.2788 0.495842 1.80809
7647 1 1 17.9187 0.556006 3.74507
398 1 1 16.5889 1.97273 37.323
1451 1 1 1.66464 2.95224 3.8061
1239 1 1 2.5165 2.34921 1.51679
2681 1 1 1.24089 1.99232 3.77408
603 1 1 2.43448 1.60607 3.17045
62 1 1 3.17382 2.56143 2.62042
7585 1 1 4.57069 0.842273 2.04382
94 1 1 6.99595 0.798387 2.33592
1168 1 1 5.86214 1.74289 3.47975
376 1 1 7.19176 4.47986 0.274587
528 1 1 8.34501 1.79512 2.93184
496 1 1 9.05969 0.966615 2.55676
824 1 1 9.15906 2.80492 3.95333
1333 1 1 9.35999 1.91505 1.52904
464 1 1 9.87082 2.44227 2.24948
7855 1 1 13.5017 2.39065 2.27231
6956 1 1 16.2428 1.81391 1.2399
1634 1 1 16.7915 2.94356 2.32382
1540 1 1 15.9605 2.03927 2.44577
430 1 1 0.369741 2.16882 2.99975
151 1 1 18.2532 3.23282 3.3901
155 1 1 1.13162 3.86789 2.27771
7366 1 1 2.25044 3.76213 0.752784
412 1 1 2.11606 3.69221 2.06586
324 1 1 2.19397 2.30738 0.329873
2365 1 1 2.71827 4.48908 3.1079
547 1 1 2.37961 3.61106 3.14602
6648 1 1 3.14952 3.55429 1.70299
7532 1 1 6.09934 2.56901 2.55759
1373 1 1 5.27401 1.88271 2.57816
1339 1 1 7.73709 4.00143 2.94508
239 1 1 7.80366 2.98965 3.52048
1308 1 1 8.42156 3.57798 4.05367
587 1 1 9.0542 3.89687 2.94364
7821 1 1 11.2597 2.77418 2.30241
1076 1 1 7.86925 4.85245 2.23739
2232 1 1 11.1182 4.53485 2.76759
537 1 1 13.4018 3.09389 3.00752
446 1 1 11.7376 4.47174 1.57769
1020 1 1 15.5162 3.12467 2.87233
7776 1 1 13.7751 3.49815 1.93826
591 1 1 15.6007 4.29936 2.21397
780 1 1 15.4128 2.60355 4.51241
651 1 1 16.6325 3.00366 3.55373
7440 1 1 17.9025 4.33947 1.43227
1636 1 1 16.9405 3.93663 2.25279
68 1 1 0.0832576 3.37287 1.88015
47 1 1 17.9218 3.24176 1.65407
580 1 1 1.93945 5.40763 2.4152
440 1 1 3.12571 5.41089 2.50691
6995 1 1 4.67836 4.89603 1.81441
7280 1 1 2.81356 6.28311 37.569
7413 1 1 5.49207 3.08627 1.51944
7823 1 1 5.82549 4.66628 3.05501
1379 1 1 8.36741 5.31365 1.46709
6659 1 1 8.49535 4.98888 3.24601
1045 1 1 9.12034 6.50335 1.74235
91 1 1 10.2579 4.97679 3.39692
173 1 1 11.0772 4.05606 3.92083
581 1 1 12.0035 5.65984 1.12593
1377 1 1 13.7652 4.28758 3.06936
1670 1 1 14.0762 4.05137 4.1785
958 1 1 14.9478 4.78742 3.02686
874 1 1 16.632 4.56167 1.51655
924 1 1 18.0327 5.51428 1.76301
1158 1 1 1.05101 5.19094 1.92568
966 1 1 1.22967 7.06115 1.66529
983 1 1 3.85627 7.02869 3.52714
7028 1 1 4.14706 5.54947 2.75008
7944 1 1 3.64247 6.14322 0.770181
568 1 1 4.51062 6.17272 1.74435
488 1 1 7.5568 5.8384 2.06763
1287 1 1 5.37627 7.08902 2.22001
1051 1 1 7.04577 6.73366 2.9334
1330 1 1 8.95385 6.02657 2.83914
231 1 1 10.3351 7.00049 2.6214
1262 1 1 9.7801 6.47582 0.366652
107 1 1 13.962 5.65808 1.12823
934 1 1 12.7228 6.25736 1.26521
7756 1 1 13.399 6.56445 2.44289
1478 1 1 13.6035 6.65801 3.66313
6316 1 1 13.7454 5.53518 3.99748
2432 1 1 15.0659 6.59534 1.11187
1265 1 1 18.1195 6.56765 0.988421
956 1 1 16.2448 6.94115 0.264144
81 1 1 18.1777 6.07813 4.73326
560 1 1 18.3608 7.2651 4.24167
928 1 1 0.258829 6.6253 1.55573
959 1 1 18.4612 8.28648 2.32524
2110 1 1 0.807274 7.39053 0.246105
98 1 1 2.4328 6.50644 2.49181
1766 1 1 2.77271 6.57918 0.884367
1409 1 1 4.09518 7.83162 2.39667
7921 1 1 4.59794 7.37287 1.68086
541 1 1 6.17771 8.53859 2.78866
153 1 1 6.82061 9.10675 2.16962
1001 1 1 6.575 9.32592 3.34326
241 1 1 9.09391 8.98901 3.14875
6627 1 1 9.47434 8.25026 2.5999
281 1 1 11.3519 7.58028 2.40184
1044 1 1 10.938 7.51072 3.48037
1863 1 1 15.2937 8.5572 3.90429
7428 1 1 13.4052 7.65476 2.89615
944 1 1 13.7409 9.00446 2.76417
2197 1 1 14.0071 8.05685 2.1527
144 1 1 16.3288 6.86529 2.28475
536 1 1 16.112 8.15089 3.19692
271 1 1 14.7695 6.21954 2.99588
1441 1 1 14.6378 8.57952 3.01015
1473 1 1 15.7498 5.9702 2.59953
6875 1 1 17.3086 7.88873 2.29061
238 1 1 17.3387 8.2282 3.57874
7308 1 1 16.6488 7.35044 3.23679
1318 1 1 0.516804 8.49633 0.81554
200 1 1 0.435139 9.37584 1.90062
1113 1 1 1.04543 8.29659 2.72385
478 1 1 2.87952 9.23664 1.91508
404 1 1 2.69023 8.93831 3.40668
114 1 1 1.16314 10.5559 2.33556
158 1 1 4.97547 9.12716 1.33948
222 1 1 2.25639 10.1155 1.30043
7482 1 1 3.82187 10.3112 2.7349
7791 1 1 3.99123 9.03234 3.10941
1450 1 1 6.50152 10.0704 1.73888
7335 1 1 8.14102 10.7476 1.55557
1532 1 1 7.6674 9.4878 3.42905
1906 1 1 9.6956 9.47567 2.35665
2065 1 1 7.73153 9.65476 1.84638
586 1 1 8.51978 11.7952 1.13204
7538 1 1 10.727 10.8528 2.95268
1790 1 1 9.83888 9.10955 1.12905
7829 1 1 11.4149 9.91718 3.22846
6864 1 1 10.677 9.74975 2.42923
610 1 1 11.2755 8.77327 2.39972
1070 1 1 11.8731 8.52072 1.42689
618 1 1 12.716 9.51835 3.12474
602 1 1 15.7028 9.04501 1.89391
1068 1 1 16.3426 9.72018 -0.00383614
1033 1 1 17.446 9.07551 0.92979
84 1 1 0.0608224 10.7037 2.60979
2154 1 1 18.4158 10.3362 1.69459
1360 1 1 18.3744 11.7648 0.453987
1003 1 1 2.11149 10.5169 2.79613
6563 1 1 1.81253 11.63 3.92046
757 1 1 1.42153 11.1548 1.26654
1005 1 1 1.71469 12.8691 1.50494
1337 1 1 3.26995 11.3633 2.23037
1093 1 1 4.34945 11.4644 1.80583
571 1 1 5.68639 10.0871 2.98424
627 1 1 4.92341 11.736 3.70598
1163 1 1 5.57453 12.1207 2.63197
1417 1 1 6.39303 12.5701 1.65914
1072 1 1 11.0236 10.4862 3.95992
1542 1 1 8.03494 12.3143 3.40611
2017 1 1 12.9115 10.5647 1.46504
379 1 1 12.8394 11.8046 0.792815
574 1 1 13.7737 11.2936 2.92665
276 1 1 13.959 10.8413 0.980616
790 1 1 15.5788 11.7367 2.69905
7798 1 1 14.3236 11.0097 4.17892
1631 1 1 16.5968 9.6995 1.20168
7474 1 1 17.785 11.1408 1.08284
7249 1 1 18.6834 11.4983 1.75089
7451 1 1 0.468989 11.5364 0.952978
7525 1 1 0.4382 13.0049 2.71426
590 1 1 2.2837 11.4394 2.26391
7805 1 1 2.94909 12.3696 2.14793
7576 1 1 5.48915 11.9941 1.45901
374 1 1 5.11078 12.847 2.07934
1061 1 1 5.99256 12.4347 4.0617
345 1 1 6.25748 11.766 0.740338
970 1 1 6.80782 12.081 2.87474
286 1 1 9.12937 13.9429 3.43651
7851 1 1 11.8759 11.2971 2.32732
872 1 1 12.8263 12.4905 1.79429
7858 1 1 15.2783 13.5549 2.38654
1193 1 1 13.5242 11.3667 1.86445
669 1 1 16.2827 13.1115 1.8597
285 1 1 14.5761 11.801 2.29556
4 1 1 16.3194 13.5164 0.299235
877 1 1 18.6152 13.1745 3.74237
1120 1 1 17.5216 11.7569 2.28902
1116 1 1 18.0252 12.8582 0.422014
7849 1 1 17.2825 13.5804 0.780448
2037 1 1 0.852287 16.7924 37.6275
724 1 1 2.14084 12.2794 2.90882
154 1 1 5.13263 14.9795 2.31826
7503 1 1 6.7902 13.98 3.06994
7004 1 1 8.17468 13.6378 0.927857
687 1 1 4.52335 16.2458 4.43327
64 1 1 6.30911 12.8408 0.484222
1210 1 1 7.86838 13.8211 1.99206
256 1 1 9.89119 14.3172 2.56857
7436 1 1 10.6305 16.5634 3.31232
7489 1 1 10.9978 14.0435 0.982215
7550 1 1 11.9812 13.3141 1.84075
1537 1 1 13.0951 12.03 3.77654
1107 1 1 14.2562 13.8582 2.49602
7052 1 1 15.1192 14.0456 3.39167
7993 1 1 16.1299 14.546 3.57134
6750 1 1 16.7289 15.4422 2.73646
265 1 1 17.3326 12.7799 3.44051
6674 1 1 0.545109 13.8782 4.20901
8000 1 1 3.66688 14.8767 1.08095
688 1 1 -0.00193565 13.5731 2.01579
1446 1 1 2.66782 15.2153 0.817108
1638 1 1 3.94971 14.9323 2.62506
1082 1 1 3.87345 15.9462 1.37611
336 1 1 3.85408 13.3608 2.97122
7613 1 1 6.14579 15.0832 3.0001
7562 1 1 7.16407 13.2214 2.31176
584 1 1 7.62637 14.4506 0.805374
277 1 1 6.2975 14.1568 0.594939
1226 1 1 10.2223 15.4915 3.45503
411 1 1 10.6223 14.8542 1.91419
1706 1 1 12.5855 14.1549 2.83112
227 1 1 12.0632 15.3787 1.99452
7230 1 1 13.8779 15.6505 2.93284
425 1 1 12.4885 13.9675 1.08912
6832 1 1 14.7823 14.8363 2.7947
375 1 1 15.8491 17.2457 0.852117
465 1 1 15.7713 16.3905 1.73546
7811 1 1 17.5388 14.1829 1.6245
6824 1 1 16.1612 15.4155 1.61677
2367 1 1 17.2427 15.1006 1.82497
1173 1 1 2.82189 16.6285 2.24748
7188 1 1 17.8339 16.2032 1.93578
643 1 1 1.29147 15.3238 2.55634
7957 1 1 1.88845 16.5239 3.72962
7561 1 1 3.28678 15.2663 1.9056
795 1 1 4.78526 17.0993 2.46643
1453 1 1 5.37169 16.9099 1.55435
1908 1 1 6.5931 13.8921 1.71755
1047 1 1 8.46529 16.1608 1.01216
937 1 1 7.54871 17.6491 1.4936
841 1 1 9.39717 17.5097 2.77982
7984 1 1 8.36118 15.1612 1.22031
1064 1 1 10.2432 15.8401 2.38697
1143 1 1 13.5998 17.1673 1.21572
7620 1 1 13.357 14.8266 2.37169
31 1 1 13.8731 17.9122 1.9276
501 1 1 14.2997 16.8029 2.72319
7779 1 1 12.6423 16.7546 2.05872
7040 1 1 15.8798 16.4785 2.94519
1590 1 1 16.6141 16.7698 2.28102
3499 1 1 16.7286 17.0619 3.22833
6905 1 1 17.2809 16.1584 3.62501
40 1 1 0.381201 17.3105 1.50572
809 1 1 1.46785 17.9292 2.3896
1086 1 1 1.95343 15.9861 2.80321
325 1 1 3.84502 16.1294 2.49006
682 1 1 2.80388 17.4826 3.16362
7119 1 1 5.09385 17.8215 1.38662
43 1 1 6.05289 17.5741 2.11183
2026 1 1 8.31396 18.4263 0.834672
814 1 1 9.93478 0.752068 1.43713
7508 1 1 10.0075 18.1759 2.00139
7349 1 1 10.8393 17.1835 37.3511
781 1 1 11.611 16.612 1.8048
6027 1 1 12.2118 17.4851 1.47148
1229 1 1 14.5473 18.1504 2.76083
708 1 1 12.655 18.3135 0.986896
2038 1 1 15.4523 17.2136 2.18351
33 1 1 16.8027 18.163 2.89611
1200 1 1 18.1101 17.2569 2.21962
845 1 1 0.321448 18.7496 4.4075
1930 1 1 2.6087 0.152825 3.82608
480 1 1 4.17203 0.346658 3.00794
1514 1 1 3.07452 1.32237 5.0567
1461 1 1 4.46549 0.595809 5.01458
7926 1 1 6.20225 17.7378 4.18315
605 1 1 8.222 18.4854 4.06967
1687 1 1 7.85891 0.851633 2.83472
7745 1 1 10.0039 18.4156 3.03011
7580 1 1 13.2746 1.25678 5.41459
7656 1 1 11.5578 17.3664 4.05882
1270 1 1 15.2952 0.0463291 3.67602
7 1 1 15.9357 18.615 2.40139
7601 1 1 18.5135 18.085 3.58324
109 1 1 0.787425 3.74197 4.58035
7848 1 1 1.6247 1.50463 5.58862
1205 1 1 0.543594 0.779257 5.25513
799 1 1 3.84102 3.20943 3.31761
7896 1 1 3.49972 1.0298 3.57267
450 1 1 4.85683 0.524957 3.72932
7715 1 1 7.23229 0.830429 5.86816
1331 1 1 6.65618 3.82853 2.53039
7700 1 1 9.17306 0.0833202 3.00189
7785 1 1 8.93315 2.82894 2.78125
7616 1 1 10.2119 1.31999 2.49293
385 1 1 9.18361 1.76923 3.58442
890 1 1 10.7207 0.744364 3.4311
149 1 1 12.7346 0.375372 3.63758
576 1 1 12.9025 1.36878 3.48619
1992 1 1 13.8111 1.05199 4.21622
1785 1 1 14.4603 1.85373 3.15537
946 1 1 15.4247 1.37992 4.45895
1037 1 1 14.4351 2.49988 1.58908
1203 1 1 13.4032 1.95544 4.60537
2099 1 1 16.2577 1.30668 3.77792
525 1 1 16.8699 1.68208 2.8419
7914 1 1 17.7031 3.50644 4.41027
283 1 1 17.5951 0.35283 5.00017
1602 1 1 2.91544 2.43172 5.14897
139 1 1 0.804532 4.60752 3.92482
1194 1 1 3.23747 4.30184 4.12428
729 1 1 2.16078 4.1089 3.99479
7996 1 1 4.62924 1.51921 4.15421
656 1 1 4.24894 4.26502 4.04358
2046 1 1 4.72554 2.51809 3.34143
611 1 1 5.60658 3.74821 2.30081
209 1 1 7.49021 3.97669 4.54635
936 1 1 4.99365 3.56933 3.6707
1776 1 1 7.27334 1.52415 3.44774
887 1 1 8.22719 2.1124 3.95739
1378 1 1 8.7365 3.97293 5.02833
1416 1 1 9.9694 3.54396 3.00622
1344 1 1 10.7311 1.48572 4.10546
906 1 1 13.6206 2.19143 3.55325
7827 1 1 14.3052 3.1034 4.49395
2323 1 1 17.2689 2.27234 4.14981
2471 1 1 17.7758 2.23161 5.20748
552 1 1 0.467611 3.16085 2.90967
745 1 1 18.2633 3.86976 2.40084
2071 1 1 0.276603 4.33954 3.02046
1717 1 1 1.43988 6.84087 4.70342
1202 1 1 2.2767 5.84755 3.57467
7754 1 1 4.44552 4.01544 2.56308
7648 1 1 4.847 4.87529 2.93694
1376 1 1 5.19227 3.81245 4.72327
604 1 1 3.39651 5.38593 4.85167
566 1 1 6.93833 4.54802 3.49366
2348 1 1 5.05842 4.77281 3.92926
1466 1 1 6.67657 5.16879 2.44878
2126 1 1 9.63799 4.01882 4.01074
156 1 1 10.2632 4.7342 4.96481
469 1 1 11.0855 5.48418 3.92895
636 1 1 14.4618 2.93679 2.61326
387 1 1 13.1989 4.75293 4.30792
6762 1 1 15.0427 5.58982 2.02799
1231 1 1 16.3304 4.79468 3.44639
6804 1 1 17.3525 4.06703 3.33872
2357 1 1 16.7949 5.5106 2.6083
913 1 1 1.55167 6.53343 3.47297
1316 1 1 0.413268 6.37063 5.52117
912 1 1 4.06195 6.02148 3.97095
6975 1 1 1.50846 4.72685 3.11361
1802 1 1 3.48578 5.08116 3.45599
454 1 1 7.23248 5.58377 3.31841
358 1 1 6.73043 7.81491 3.48398
7096 1 1 8.14199 5.96451 3.71844
582 1 1 10.6463 4.94125 5.88758
7904 1 1 9.72966 6.3019 4.02839
1759 1 1 11.9224 8.84908 3.29858
401 1 1 13.3872 5.99498 4.893
908 1 1 14.3853 6.47402 4.26093
1793 1 1 17.4482 6.47699 3.19304
1709 1 1 17.1508 5.54665 4.08398
7228 1 1 17.2611 6.45279 4.95618
752 1 1 17.6024 7.37487 4.87378
481 1 1 18.3637 5.58254 3.81112
1399 1 1 0.535906 7.65727 3.41871
1443 1 1 2.93766 6.77142 4.66268
45 1 1 3.30952 7.98521 4.20843
996 1 1 2.16764 8.05249 3.09927
7651 1 1 3.24518 6.55085 5.7079
1405 1 1 4.87921 7.39723 4.06402
661 1 1 4.85124 6.26482 2.90029
177 1 1 7.34051 8.53901 3.84588
1301 1 1 6.97406 7.53628 1.65198
1609 1 1 7.7581 7.03972 4.07135
462 1 1 6.90306 8.00845 4.77446
7743 1 1 10.4454 5.60758 4.65693
74 1 1 9.64132 8.33812 3.7004
551 1 1 11.0756 6.48094 4.03685
1822 1 1 11.397 8.72465 4.61284
556 1 1 14.3528 7.54515 4.13629
1939 1 1 14.8393 7.69404 6.17748
2594 1 1 15.4994 7.1844 4.52869
1728 1 1 18.5508 9.54797 2.59862
1396 1 1 16.7253 6.29424 5.98138
1128 1 1 1.11513 9.49042 3.23771
175 1 1 3.8268 8.15563 1.35487
1419 1 1 2.23034 9.53942 4.88627
925 1 1 3.39472 9.33009 3.86342
1475 1 1 3.64107 8.10747 5.26432
896 1 1 3.5442 10.4006 4.37993
7862 1 1 5.33378 9.06936 3.25633
7953 1 1 7.26456 10.2964 2.46355
955 1 1 8.29659 9.83807 2.58464
1217 1 1 8.05599 10.5013 3.80228
7334 1 1 8.84101 8.50245 4.86603
232 1 1 10.2282 10.0086 3.29947
1833 1 1 10.5549 8.6058 3.15859
253 1 1 13.2179 8.74415 4.74449
600 1 1 13.9819 9.13829 3.98694
1422 1 1 13.5988 10.1646 2.88588
108 1 1 15.0279 9.72348 3.76816
1498 1 1 12.7122 9.66547 2.09427
1715 1 1 15.734 9.11917 3.08491
914 1 1 16.4069 7.84236 4.25867
146 1 1 16.5087 11.3116 4.0625
1350 1 1 16.3644 9.71382 2.26317
7397 1 1 16.6941 9.38096 3.46608
1798 1 1 17.6135 8.51772 5.47902
1637 1 1 17.4816 8.97095 2.17683
6972 1 1 1.87807 9.15501 2.51138
1878 1 1 1.46382 10.5089 3.79629
393 1 1 2.63245 12.25 3.88616
6683 1 1 3.06113 10.5049 3.25691
201 1 1 3.67265 13.0019 4.10213
1427 1 1 4.70552 10.2218 3.61332
1135 1 1 6.60043 11.5495 4.30072
1177 1 1 6.86433 9.45294 4.43892
825 1 1 6.05868 11.2733 3.22197
3250 1 1 8.45798 11.0874 2.61644
1112 1 1 8.99774 10.1491 3.55009
622 1 1 12.3453 11.3103 3.52137
1825 1 1 10.5271 11.3547 1.44554
526 1 1 12.3339 9.68971 4.16463
2244 1 1 12.7988 10.8554 2.75856
162 1 1 14.6541 11.7089 3.3013
1676 1 1 13.9566 12.0218 4.36108
1827 1 1 14.7565 10.7678 5.87418
960 1 1 15.5977 11.7843 3.92164
7603 1 1 0.261095 9.76449 3.80483
648 1 1 1.23388 12.0765 2.16878
715 1 1 17.4947 10.0261 2.99729
967 1 1 0.580952 12.4426 3.92299
1486 1 1 2.49741 10.2132 4.16802
52 1 1 3.78305 13.9916 3.77402
690 1 1 5.61518 11.7079 4.62454
216 1 1 3.68156 11.4527 4.45803
2215 1 1 8.3311 14.436 4.18806
290 1 1 7.29763 12.9272 3.49677
1175 1 1 8.56072 11.5022 5.1132
1069 1 1 8.89253 10.6792 5.6738
1046 1 1 8.68906 11.1824 3.698
678 1 1 13.0076 11.953 4.80939
1757 1 1 13.8381 12.5614 3.47191
683 1 1 15.1825 12.73 3.36513
235 1 1 16.5478 12.67 4.1798
7350 1 1 15.9825 14.6059 2.42743
306 1 1 16.0932 13.1832 3.26657
7480 1 1 17.1867 14.3034 5.36212
629 1 1 16.8384 13.7506 4.43389
300 1 1 0.112196 11.882 2.93703
712 1 1 17.5186 14.6861 4.50898
1078 1 1 2.27919 13.2788 5.86042
7403 1 1 4.60024 12.4828 3.08255
6379 1 1 5.52296 13.3937 3.11106
1504 1 1 4.78885 12.7149 4.3779
815 1 1 4.72068 14.1766 3.08453
6979 1 1 5.22216 15.238 3.60525
1512 1 1 7.37071 11.4699 2.00342
2425 1 1 7.70266 13.9048 3.26109
1139 1 1 9.37942 14.917 3.94341
468 1 1 9.00121 15.2383 4.89519
1912 1 1 8.17548 14.6475 2.7242
572 1 1 10.7604 13.6707 2.03584
1533 1 1 11.0687 14.4901 2.85313
1187 1 1 11.9711 14.6696 3.53804
7853 1 1 14.2365 12.7489 2.06572
7893 1 1 13.548 13.9593 5.69876
670 1 1 17.9153 15.1746 3.31851
1958 1 1 1.59965 14.1583 4.00987
844 1 1 1.16744 13.21 4.6931
853 1 1 0.584743 13.9634 2.94556
1561 1 1 2.89259 13.9363 2.94535
663 1 1 3.62329 13.5022 5.20904
1531 1 1 4.2611 15.0946 4.08255
902 1 1 4.87837 16.109 2.20171
1266 1 1 5.67278 14.2969 3.55924
734 1 1 7.41823 14.9443 1.91368
1545 1 1 8.53199 15.2186 3.55087
317 1 1 10.6236 15.8549 4.33217
460 1 1 11.0909 15.4931 2.93353
7704 1 1 13.4173 13.5155 3.176
7146 1 1 14.8677 12.788 4.65841
990 1 1 16.5891 15.4986 4.35995
443 1 1 0.314666 14.875 3.76725
1087 1 1 15.7325 15.6703 3.5474
1526 1 1 0.712478 16.3249 3.89358
1689 1 1 0.679737 16.8139 2.54533
812 1 1 0.038449 17.6159 4.51538
1198 1 1 1.69471 17.2939 3.22458
800 1 1 2.55568 15.9025 4.69015
816 1 1 0.968568 17.2145 4.06201
861 1 1 2.6544 15.2431 3.44962
860 1 1 4.06184 17.8785 3.21288
1179 1 1 3.38952 16.393 4.14217
7123 1 1 5.6981 18.3417 3.47126
2824 1 1 5.68213 16.6997 2.51895
7627 1 1 9.65569 15.8415 4.09383
504 1 1 8.56821 16.5215 3.17436
260 1 1 6.78252 16.4557 3.12286
384 1 1 9.08544 15.3603 2.71032
423 1 1 11.5803 17.9674 2.99752
1579 1 1 11.7735 13.4195 4.37982
1541 1 1 10.0651 17.0127 5.14881
7990 1 1 12.546 15.8704 5.07749
818 1 1 11.8129 16.9179 2.86637
7911 1 1 14.0742 17.683 3.64913
7635 1 1 15.3562 15.6287 2.42743
1474 1 1 16.1203 16.9717 4.39021
1406 1 1 17.0039 17.3634 5.06114
278 1 1 17.269 17.3901 4.01844
1149 1 1 18.114 16.1215 4.60216
843 1 1 0.343815 18.1141 2.13794
1569 1 1 0.923731 0.152166 2.61189
686 1 1 2.32745 17.91 4.03352
728 1 1 1.84135 18.4299 3.14935
1140 1 1 2.88174 16.5014 3.24301
115 1 1 4.58316 18.1968 2.35776
1932 1 1 5.53237 0.0370635 4.33909
888 1 1 3.48551 17.6588 4.20561
293 1 1 6.1733 16.8108 3.82472
171 1 1 8.27159 17.3786 2.51969
7619 1 1 9.13997 18.7702 1.80527
1131 1 1 9.52022 17.0024 3.77305
1133 1 1 10.7194 17.6254 2.66577
421 1 1 10.321 17.8652 3.92816
224 1 1 11.1716 17.5994 1.68453
390 1 1 9.8823 18.2166 5.23483
7987 1 1 12.472 17.6429 2.57129
7938 1 1 11.7278 18.8123 4.56549
7149 1 1 12.8943 16.9945 3.38548
948 1 1 12.8393 0.556187 4.60905
427 1 1 16.194 17.9754 3.93537
822 1 1 16.9918 0.177298 3.52448
1554 1 1 0.0218696 18.2384 5.2048
328 1 1 18.187 0.209867 2.61868
915 1 1 3.10984 18.7522 4.85621
7197 1 1 2.04503 18.584 5.0617
1643 1 1 1.26207 0.0829159 5.69768
2285 1 1 4.79297 18.0369 4.24405
1488 1 1 6.38237 1.20933 4.45343
767 1 1 4.73045 18.6281 5.53242
248 1 1 5.90763 18.786 5.70917
7678 1 1 8.141 18.5892 2.99575
7524 1 1 6.55852 0.311335 6.56336
2140 1 1 6.65889 0.258789 4.99745
41 1 1 7.66249 18.6598 5.89193
14 1 1 8.53428 0.723508 6.07747
6673 1 1 9.24922 18.1323 4.06684
1582 1 1 8.9858 1.5653 4.74557
947 1 1 9.02168 3.11026 6.2815
671 1 1 10.9133 0.128601 5.85894
2109 1 1 12.9096 18.7691 5.699
7549 1 1 14.2981 0.821164 5.1263
1999 1 1 16.3159 0.480832 4.37777
3146 1 1 16.2087 1.00629 5.34267
1591 1 1 17.2017 1.29808 5.68609
558 1 1 17.1019 1.22406 4.49796
869 1 1 17.7841 0.0637163 6.26424
867 1 1 1.41604 2.8095 5.26635
1319 1 1 2.60198 18.3684 6.39224
1129 1 1 2.64087 3.02201 4.01703
1197 1 1 4.11677 2.50936 5.27052
6767 1 1 5.45036 2.56625 4.11079
1675 1 1 5.47182 0.898163 5.3449
2136 1 1 6.5298 1.68903 5.61823
104 1 1 5.34026 1.49885 6.6353
885 1 1 7.49409 0.811885 4.23358
7762 1 1 8.44727 1.72257 5.78182
7997 1 1 9.59554 3.20132 4.99897
3337 1 1 7.42183 1.90456 4.75284
1658 1 1 9.47346 0.63313 4.91918
7989 1 1 10.6129 0.275526 4.66566
616 1 1 12.1569 0.618489 5.2665
32 1 1 13.4049 2.32617 5.98325
859 1 1 14.2641 1.67395 5.86361
1345 1 1 15.261 0.463699 5.01623
2392 1 1 16.6906 2.71755 6.57879
7044 1 1 16.3322 2.0133 4.84855
157 1 1 16.4466 1.52197 6.40126
1223 1 1 18.3 1.71764 4.19751
119 1 1 17.5769 1.46316 7.08995
509 1 1 0.0852781 2.42042 5.51068
792 1 1 2.15443 3.57592 4.94045
1325 1 1 3.1215 3.69645 5.46825
910 1 1 2.89227 3.37362 6.82042
441 1 1 3.31975 4.63893 5.85379
951 1 1 4.4137 2.93042 4.35347
1608 1 1 3.38976 4.11075 7.33846
2208 1 1 6.50928 3.96283 4.71317
455 1 1 7.13476 4.96249 5.19779
1375 1 1 7.27991 2.78533 4.40582
1255 1 1 6.6142 3.36407 3.70919
588 1 1 6.5223 2.93642 6.53814
2094 1 1 8.56502 2.89925 5.0146
593 1 1 10.6924 3.26163 5.06885
1749 1 1 9.99392 3.50978 6.02
511 1 1 12.5835 3.07909 4.23123
180 1 1 12.4163 2.1773 5.40188
140 1 1 12.3044 4.68684 3.34973
1317 1 1 12.3107 1.40141 4.62475
1309 1 1 11.8613 3.6656 4.82101
850 1 1 12.7262 3.3057 5.33643
870 1 1 14.0933 3.39536 5.49259
7712 1 1 14.8209 4.15748 6.1623
1413 1 1 16.1925 4.26395 5.59073
1338 1 1 17.6737 4.69187 4.21526
486 1 1 18.2709 3.55967 5.62817
954 1 1 0.623667 2.60454 4.15298
756 1 1 0.164658 4.51291 6.32409
2558 1 1 18.4292 3.628 6.7977
1543 1 1 1.75458 5.10754 4.14547
1538 1 1 0.0896767 6.48408 6.69201
1355 1 1 4.35853 4.93595 5.49763
1852 1 1 4.20283 3.82154 5.39869
7843 1 1 5.54203 5.23933 5.72515
1299 1 1 7.83635 5.9898 6.16858
252 1 1 8.63631 4.68549 7.65725
1098 1 1 9.13193 5.68587 4.55388
2139 1 1 11.0704 3.72629 5.92017