ITEM: TIMESTEP
4500
ITEM: NUMBER OF ATOMS
8000
ITEM: BOX BOUNDS pp pp pp
0.0000000000000000e+00 1.8820720577620570e+01
0.0000000000000000e+00 1.8820720577620570e+01
0.0000000000000000e+00 3.7641441155241139e+01
ITEM: ATOMS id mass type x y z
7265 1 1 1.43197 17.03 1.4087
2134 1 1 2.31254 18.1464 37.0652
7560 1 1 0.735611 3.34194 0.11688
6076 1 1 7.61021 0.609992 0.651083
2026 1 1 4.72062 0.315968 0.989055
605 1 1 7.55677 0.602733 1.83915
6017 1 1 8.53946 0.963689 1.7162
6703 1 1 10.2452 1.41944 0.617629
6509 1 1 10.2753 17.7628 37.1944
7821 1 1 13.0523 18.56 36.391
382 1 1 13.753 1.53691 0.36324
7938 1 1 14.1204 2.68229 1.74507
742 1 1 13.3467 1.68068 3.65134
1269 1 1 14.8664 1.28499 2.52224
7293 1 1 18.2463 1.77115 0.429579
7690 1 1 1.43939 1.77765 0.835029
7261 1 1 3.29358 18.3305 0.51321
7604 1 1 1.63611 0.49868 0.583681
6995 1 1 3.06498 2.96716 1.58145
402 1 1 4.50282 3.477 0.173037
816 1 1 2.47085 1.88395 0.171782
6459 1 1 2.64617 0.47346 0.0462549
7585 1 1 3.30339 0.452732 1.82914
3 1 1 5.21409 2.43266 2.90393
497 1 1 6.54892 2.35864 2.43751
1168 1 1 5.05498 1.39608 1.94767
7725 1 1 9.51342 2.22236 37.3444
89 1 1 9.17182 1.01344 0.347732
7994 1 1 10.5273 0.87347 36.8863
1333 1 1 13.1509 3.00699 0.984309
1037 1 1 13.7474 2.01927 36.8666
7471 1 1 14.5427 0.977007 1.24449
1540 1 1 16.3829 3.04069 37.1498
1713 1 1 0.566527 3.42855 1.32394
6152 1 1 1.51261 5.43633 3.04873
1239 1 1 0.261864 3.99342 2.58783
7091 1 1 2.61929 2.79655 37.1939
7456 1 1 4.07093 2.71196 1.0567
802 1 1 3.78952 4.26367 1.72508
7653 1 1 5.8062 3.06568 2.169
7300 1 1 6.02206 3.69856 3.97652
7667 1 1 5.49065 2.92586 0.335642
7919 1 1 9.1684 0.729532 36.1429
633 1 1 7.07227 1.69207 0.826203
529 1 1 10.5965 1.82333 37.2865
7010 1 1 12.6171 2.59874 1.80231
1380 1 1 13.2352 5.42821 1.25453
446 1 1 12.3732 1.4492 1.15737
434 1 1 13.656 3.30896 36.7576
7432 1 1 17.1593 5.8933 2.32385
7636 1 1 14.1411 3.92022 1.30899
2160 1 1 15.8235 4.29194 0.995782
5397 1 1 18.0632 5.29628 36.55
6199 1 1 15.4964 3.42787 37.5545
68 1 1 18.7096 4.14472 0.917016
924 1 1 1.83326 6.36181 0.772988
1237 1 1 2.80557 3.9214 3.59608
7366 1 1 2.18228 6.78132 4.20301
72 1 1 18.4455 6.03186 1.30467
489 1 1 1.61105 3.93431 2.05887
1885 1 1 4.15312 5.88777 34.122
568 1 1 5.67994 5.72297 37.3846
323 1 1 7.41275 4.64377 0.281
796 1 1 6.96786 6.60496 0.38181
1369 1 1 11.6606 6.71775 2.17966
1045 1 1 7.63259 5.525 37.5401
6691 1 1 9.77212 3.70533 0.65001
2232 1 1 12.919 5.70734 37.6134
502 1 1 13.9655 4.18137 36.3344
7866 1 1 10.4914 7.11323 37.2046
1329 1 1 14.2119 5.49232 1.1971
1109 1 1 12.289 4.91441 0.533668
7796 1 1 13.3036 4.55942 37.0504
6828 1 1 14.3699 5.14506 36.168
7972 1 1 17.2279 7.44744 36.4327
75 1 1 18.3117 5.2287 2.49291
2357 1 1 16.7525 6.11179 1.04048
6561 1 1 18.1492 7.0399 1.59672
7944 1 1 3.3787 7.06227 4.4139
15 1 1 5.07497 4.49412 0.32006
7322 1 1 5.23267 7.98651 1.07545
7699 1 1 6.34277 5.40715 1.19313
7663 1 1 8.032 6.65555 1.29769
5747 1 1 8.25209 4.6516 36.8998
7924 1 1 7.27223 6.91579 3.11479
6538 1 1 10.0629 7.57041 0.926721
5690 1 1 10.3648 8.79829 1.51191
378 1 1 10.7247 8.01618 2.06993
7427 1 1 11.7992 4.72962 1.62625
7937 1 1 15.099 5.61034 37.4766
5812 1 1 12.4752 8.21955 1.04033
7641 1 1 14.8616 6.58441 1.60831
107 1 1 14.9828 6.90677 37.0219
657 1 1 16.8426 7.34458 37.3776
7351 1 1 0.755061 8.93462 1.42798
7544 1 1 15.9413 6.63337 1.94115
7841 1 1 1.02215 6.36359 3.52381
1314 1 1 1.40302 8.42093 2.83833
6874 1 1 5.3708 8.92882 0.830133
626 1 1 1.20477 9.68543 0.895029
997 1 1 2.86022 5.72197 0.37894
175 1 1 2.64778 4.61743 2.13556
6987 1 1 2.77039 8.71889 0.420705
7803 1 1 5.7082 6.98598 1.06559
1850 1 1 6.14382 6.6902 36.8617
7643 1 1 8.14676 8.9456 0.189773
6477 1 1 7.84121 8.02054 0.727267
7748 1 1 8.52215 7.49796 2.21525
6136 1 1 8.71874 7.82346 0.0689562
7301 1 1 14.0893 5.45642 37.4358
181 1 1 12.9356 6.85081 0.309565
461 1 1 11.901 8.99145 1.35709
7983 1 1 13.8396 9.54138 2.50694
230 1 1 15.598 7.5239 0.324168
186 1 1 18.0268 7.7559 0.733613
444 1 1 18.7997 6.57838 0.299557
550 1 1 15.6885 8.39283 35.8825
7795 1 1 1.79027 7.78198 1.97638
7451 1 1 18.3855 9.81215 1.39892
2320 1 1 18.4688 8.68414 0.970271
222 1 1 4.46278 8.29316 0.175526
138 1 1 5.56019 10.6234 36.3209
331 1 1 6.72113 8.04301 0.227029
530 1 1 7.06745 8.31382 36.2425
1450 1 1 6.42555 7.95827 35.0895
7335 1 1 9.66535 9.58501 0.951543
53 1 1 8.86257 9.97999 1.32608
7891 1 1 8.20696 10.2205 0.562369
6669 1 1 10.8513 8.25957 0.842488
1790 1 1 9.63228 8.78469 0.354446
7826 1 1 13.9157 10.949 0.126077
7932 1 1 12.9733 8.32372 36.8305
6997 1 1 16.3516 8.91738 37.5956
1359 1 1 14.0181 6.84134 0.0162774
6705 1 1 14.5508 7.83319 0.22727
84 1 1 0.387094 10.7195 1.10902
200 1 1 1.99304 11.3661 0.17496
7011 1 1 3.13233 8.93324 1.36474
7897 1 1 4.04408 10.5319 36.6539
453 1 1 7.84139 11.9198 1.81057
1512 1 1 7.45057 12.4764 35.9914
1217 1 1 7.35595 10.7005 2.04058
1906 1 1 12.3764 8.90913 2.64178
6896 1 1 9.32653 10.886 0.437042
7457 1 1 11.631 11.6747 0.326136
6699 1 1 13.676 11.1022 2.4831
1193 1 1 13.6665 8.73853 0.933176
7512 1 1 15.5445 11.1514 1.46542
7022 1 1 0.0618769 9.81433 37.1432
769 1 1 16.6859 10.4309 1.47769
7397 1 1 15.6054 9.84462 37.3174
1120 1 1 16.9754 11.9086 37.0741
1036 1 1 17.6575 9.0069 0.058294
7189 1 1 17.8026 12.7093 36.5637
7927 1 1 1.1076 12.1547 2.59895
215 1 1 5.44466 11.7234 36.449
6578 1 1 3.64913 11.3049 0.128752
1211 1 1 4.88691 11.0491 0.780401
2373 1 1 6.431 14.7803 0.876481
691 1 1 8.90573 11.3239 2.25729
7004 1 1 9.52538 12.3333 1.84616
255 1 1 7.43128 13.159 1.24089
993 1 1 9.54771 13.323 0.182403
765 1 1 7.33285 10.1933 0.978439
99 1 1 10.4999 11.6622 36.1619
1017 1 1 10.3023 12.0581 3.08699
6864 1 1 10.4881 12.2704 37.6038
296 1 1 13.3122 10.7693 1.02421
7452 1 1 14.6075 12.0996 37.1882
7075 1 1 14.0736 13.1632 0.836234
2017 1 1 14.4095 10.8188 1.12555
57 1 1 16.3273 12.7533 0.894655
973 1 1 16.7105 12.0297 2.04515
7772 1 1 18.5449 13.4604 2.49926
693 1 1 15.6784 12.0656 36.9403
1116 1 1 1.71955 14.0017 2.99616
1282 1 1 1.45892 13.7794 1.15731
559 1 1 0.803123 12.9527 1.20417
203 1 1 4.06548 15.3927 0.662963
7139 1 1 4.84494 15.5587 1.86247
813 1 1 6.01044 14.6886 0.0816461
863 1 1 4.80152 11.8288 3.83642
17 1 1 6.08481 12.2447 37.4916
8 1 1 6.43153 14.92 36.7183
7610 1 1 7.58739 14.565 0.841633
6590 1 1 10.0094 13.51 3.44812
738 1 1 9.86001 13.3814 1.6447
1081 1 1 9.0429 13.6535 36.4086
7489 1 1 12.399 13.9055 2.82793
6634 1 1 12.1411 9.6134 35.3274
7704 1 1 11.5441 14.5949 37.0341
7635 1 1 14.8372 12.1312 1.54064
7853 1 1 15.1384 14.9394 0.969442
6788 1 1 17.1977 11.0502 0.109153
7888 1 1 18.2939 14.3615 0.423907
113 1 1 0.761202 13.8929 36.7997
1928 1 1 0.570864 14.7121 1.0309
5597 1 1 0.212425 16.7192 37.5948
1529 1 1 2.31853 14.2343 0.901333
311 1 1 1.98223 16.0251 0.705701
6321 1 1 3.60345 14.7252 1.5349
1082 1 1 2.53523 15.2314 2.00248
6379 1 1 6.06646 15.6392 1.54976
1729 1 1 5.50455 15.2641 0.766574
734 1 1 5.97924 14.6178 2.56725
67 1 1 8.43187 13.2945 1.64726
7206 1 1 8.09071 16.7209 0.146125
660 1 1 11.6999 13.9908 0.208844
586 1 1 10.7978 13.8703 37.6414
377 1 1 11.7641 15.7092 0.266586
1143 1 1 13.3122 15.9705 1.34794
740 1 1 12.2345 14.7494 0.413491
7834 1 1 13.1759 14.8742 1.5493
6399 1 1 15.2646 12.7471 36.1468
6723 1 1 15.3018 18.1073 0.557983
237 1 1 14.6501 14.1368 0.763368
465 1 1 16.0624 14.7853 0.580033
129 1 1 16.993 15.3056 1.92375
7483 1 1 17.1544 13.7286 37.5018
1192 1 1 1.42444 16.791 36.8809
7525 1 1 18.1311 16.6081 0.623708
192 1 1 0.48078 17.0121 36.7157
795 1 1 2.94798 15.7927 0.800288
1446 1 1 5.16955 17.5497 1.24441
7543 1 1 7.81562 15.4239 2.90977
7767 1 1 4.6822 16.1773 0.804936
749 1 1 7.24616 16.0081 1.39277
7678 1 1 7.4081 17.0143 1.02224
419 1 1 6.92128 15.6492 0.422338
1064 1 1 10.7255 17.2573 35.262
38 1 1 8.38585 15.0182 0.403576
7779 1 1 11.0229 16.5214 0.733439
7508 1 1 11.6802 17.3043 36.7852
6636 1 1 13.7997 18.1187 1.08282
1584 1 1 12.7929 15.9073 37.5372
1134 1 1 12.0014 16.3634 1.3235
501 1 1 14.1599 15.0992 1.05863
3499 1 1 16.4742 0.929086 2.42774
2038 1 1 14.2306 15.5776 2.25162
7390 1 1 14.908 17.429 36.4064
7787 1 1 16.7852 16.5405 1.42328
5999 1 1 18.5666 17.8043 0.806276
314 1 1 17.7289 0.291862 1.5924
1569 1 1 0.777019 17.5513 0.201127
7210 1 1 4.2447 18.5908 0.143277
1257 1 1 5.60915 18.5176 1.11006
1895 1 1 7.0555 18.5624 0.64256
43 1 1 7.0759 17.8528 37.2989
292 1 1 5.8644 18.2252 2.251
287 1 1 5.46083 0.896509 37.2048
55 1 1 8.2738 17.844 1.38918
6822 1 1 7.08626 16.5505 37.2682
496 1 1 9.04243 17.4313 0.738159
224 1 1 11.3354 18.5396 0.441635
7713 1 1 11.6257 17.3709 0.453096
343 1 1 12.798 17.3171 0.884495
2661 1 1 14.013 16.6229 0.0464474
31 1 1 13.7347 0.472534 1.05323
7149 1 1 13.6278 16.7467 2.14979
1110 1 1 14.3029 18.6017 0.0381387
1785 1 1 14.6936 18.5654 1.79629
843 1 1 14.6083 15.8923 37.1127
847 1 1 0.881569 17.6989 2.78663
47 1 1 1.28539 2.0568 2.74757
7647 1 1 0.624167 1.02893 2.19838
399 1 1 4.17909 0.0295318 2.41347
1327 1 1 2.99905 18.2608 2.73618
860 1 1 4.11189 0.0410128 3.63101
487 1 1 4.99417 18.3706 3.13143
480 1 1 5.93764 18.8095 3.83665
450 1 1 9.21217 0.427968 2.59269
7996 1 1 7.39468 18.6463 2.9419
6851 1 1 8.37092 15.9332 0.825389
1658 1 1 9.78894 1.83257 2.45236
887 1 1 11.4058 17.6278 1.87413
543 1 1 10.9295 1.20004 1.47003
1344 1 1 15.59 18.7262 2.40998
576 1 1 18.4404 1.91069 2.57614
7930 1 1 14.4952 1.9984 1.00719
745 1 1 0.426804 1.28274 1.04815
328 1 1 0.276556 18.5361 0.397425
762 1 1 18.0232 3.06707 1.79951
115 1 1 1.97343 2.02672 1.8755
445 1 1 4.13912 1.13387 1.9798
7284 1 1 4.42719 2.43925 2.15107
2046 1 1 3.91105 2.2998 3.56471
611 1 1 3.15153 2.9409 4.22222
6986 1 1 6.76425 2.1372 4.34054
7215 1 1 7.86102 2.1368 3.59271
566 1 1 6.70739 3.70363 2.4093
7785 1 1 9.64446 1.42062 1.53998
505 1 1 11.6964 2.1857 0.799169
385 1 1 10.7853 2.17637 1.51875
1213 1 1 13.0288 2.39642 2.92357
7844 1 1 17.1817 3.66835 1.34235
1670 1 1 14.0288 3.9563 2.45934
511 1 1 16.4446 2.95118 1.3704
1634 1 1 0.376103 1.25541 3.54407
7440 1 1 18.3714 1.55966 1.55032
7669 1 1 15.4954 3.47256 1.4253
1231 1 1 0.78953 2.06283 1.57728
966 1 1 0.124186 2.74833 2.27817
6882 1 1 4.16348 3.21754 2.95646
479 1 1 5.3472 3.42832 3.01833
318 1 1 2.33922 0.930116 1.19406
7251 1 1 4.91564 3.97978 1.97048
1331 1 1 6.0799 2.63927 3.88238
527 1 1 6.78872 4.50259 1.87097
7532 1 1 6.95598 3.20446 1.387
6767 1 1 6.58411 4.57929 3.44713
6659 1 1 8.60142 2.0244 0.370331
2348 1 1 7.76567 4.29464 1.36129
886 1 1 8.89221 2.93212 2.31089
91 1 1 10.6891 3.39079 1.98217
1004 1 1 11.1987 3.39153 0.154647
7246 1 1 15.3685 3.01615 2.38824
581 1 1 13.0018 4.01782 2.75679
1473 1 1 15.1065 5.06428 2.01586
18 1 1 17.2017 3.48057 0.37224
537 1 1 13.7805 4.07352 3.8536
6648 1 1 18.5863 3.42674 37.621
35 1 1 17.6192 4.96109 1.77815
1265 1 1 0.250123 3.39706 3.52969
7966 1 1 1.33836 6.05525 2.19892
406 1 1 2.2668 4.4907 4.88241
835 1 1 4.69606 4.98944 1.56093
1287 1 1 2.90835 5.97061 4.30549
548 1 1 7.2783 5.30082 1.2906
5739 1 1 9.34296 3.89468 2.55394
1466 1 1 7.98526 5.8921 2.22581
661 1 1 8.15245 3.40807 3.28414
464 1 1 7.68439 4.11417 2.34882
1379 1 1 7.53171 6.14954 3.49495
7611 1 1 12.4074 5.98712 1.92664
7666 1 1 11.0039 3.83471 1.03529
6541 1 1 13.1737 4.40846 1.71026
7468 1 1 14.913 5.56098 3.10967
2432 1 1 15.8744 5.17509 4.4238
6762 1 1 1.21291 4.17888 0.738185
1983 1 1 15.9967 5.44512 2.16606
651 1 1 16.6917 4.7195 2.07241
2110 1 1 18.2209 8.98258 3.97599
206 1 1 0.205547 7.44044 2.14887
1766 1 1 2.53656 5.34094 1.36566
1158 1 1 4.02978 6.09954 3.35003
7879 1 1 6.68621 6.19585 1.61848
158 1 1 4.43033 6.57587 1.25725
585 1 1 8.06402 4.90922 3.69686
623 1 1 10.0846 4.5956 1.15897
7096 1 1 9.89463 6.25359 0.35404
2103 1 1 11.0676 7.74362 3.13986
934 1 1 11.1399 4.72839 2.78633
7904 1 1 9.56051 5.17299 2.23514
1833 1 1 13.6147 6.38176 1.91133
6316 1 1 13.3529 5.50727 4.07319
7758 1 1 15.7985 4.2343 3.83629
431 1 1 12.9415 7.31982 3.59866
7679 1 1 16.6564 4.5202 37.6495
34 1 1 0.0859986 4.73366 1.85985
190 1 1 0.38154 6.04161 2.38353
1318 1 1 2.10218 8.89258 1.28552
1113 1 1 0.731548 8.05718 3.7312
408 1 1 4.59115 8.83736 4.02391
565 1 1 0.362579 7.93893 1.1054
7683 1 1 2.96647 8.09106 2.23642
532 1 1 6.84421 9.51711 0.125263
7921 1 1 7.20575 7.28996 1.10585
7862 1 1 6.34906 7.02605 2.18756
570 1 1 9.16985 7.3093 3.12988
7002 1 1 11.2339 9.75537 1.31386
697 1 1 8.69033 5.50726 1.47371
7422 1 1 10.0484 7.19133 1.96573
1330 1 1 11.7766 7.11118 3.39128
193 1 1 11.8194 7.72116 1.67988
1262 1 1 13.1203 5.43507 2.75033
498 1 1 14.995 7.46217 1.21274
271 1 1 14.7742 4.61843 0.492062
1000 1 1 15.9353 6.69473 3.61984
6675 1 1 16.7391 7.48559 3.88038
6875 1 1 16.614 7.33905 1.55364
996 1 1 2.44103 11.1223 5.2199
1105 1 1 3.06481 9.84513 3.65195
289 1 1 1.77192 10.6403 0.910493
7967 1 1 2.68849 7.65465 0.998504
7248 1 1 3.36809 10.3609 4.76363
1093 1 1 3.53711 10.2402 1.52925
627 1 1 7.06619 11.1943 0.349402
541 1 1 6.25028 7.92436 1.54245
2065 1 1 8.15025 9.45125 4.09358
1648 1 1 6.88096 9.05161 3.6075
7953 1 1 11.8309 8.31665 3.86958
955 1 1 10.7333 9.63931 2.23004
615 1 1 9.30047 6.86605 1.28007
188 1 1 12.635 7.9655 2.06807
276 1 1 14.367 8.04282 1.76505
676 1 1 15.1701 10.4565 3.41784
223 1 1 16.0717 8.41018 1.03337
960 1 1 14.6705 8.98229 1.32538
1863 1 1 0.345423 10.4192 3.01356
536 1 1 17.8256 10.608 1.15497
1870 1 1 18.4717 9.34854 2.46458
1728 1 1 0.749149 9.21687 2.98354
7845 1 1 2.15915 11.0432 1.95186
7474 1 1 18.4128 11.7123 1.2761
590 1 1 2.91076 10.5545 5.90897
715 1 1 3.08861 11.0516 3.81074
7326 1 1 3.6189 9.11852 2.74061
7576 1 1 6.57619 11.4798 36.6289
925 1 1 4.2416 9.21402 0.959632
970 1 1 5.17007 8.99595 2.77799
825 1 1 7.96936 9.62159 3.06416
2418 1 1 4.85175 10.2336 0.152184
7531 1 1 9.36542 9.75751 3.48933
699 1 1 9.75653 12.4832 0.813671
1784 1 1 9.22492 9.14442 4.92287
7538 1 1 11.2001 11.031 3.34889
7536 1 1 10.5231 10.7257 1.16377
610 1 1 12.2786 11.5448 2.82807
7851 1 1 13.8556 9.93851 1.10032
1533 1 1 15.4576 10.2609 2.27849
433 1 1 11.8258 10.031 2.70625
285 1 1 14.0914 10.7303 4.30328
146 1 1 18.2871 10.7325 2.11859
7480 1 1 16.7452 11.3064 3.90838
1637 1 1 0.87917 10.0606 1.92159
967 1 1 18.7561 13.1944 3.50149
7249 1 1 3.0777 12.7071 2.21119
647 1 1 5.31376 12.6063 0.948419
7482 1 1 2.31581 11.9354 2.58408
7376 1 1 4.89718 12.8615 3.45039
1163 1 1 5.15628 13.439 2.28382
1417 1 1 5.32219 9.30349 4.38359
374 1 1 6.2101 9.6128 2.62343
277 1 1 8.3744 12.1548 2.66384
64 1 1 8.04504 12.492 3.88659
1908 1 1 9.2729 14.5427 2.38009
1542 1 1 10.1269 11.5989 0.614267
7545 1 1 11.8868 12.4968 2.93679
6832 1 1 13.634 12.5815 37.5198
574 1 1 14.1797 12.102 2.42126
234 1 1 16.7987 10.2269 2.93769
683 1 1 15.1984 11.6122 2.49988
7867 1 1 18.076 12.0796 2.28173
300 1 1 18.0981 10.6148 3.41283
757 1 1 2.41019 13.9464 2.17313
688 1 1 4.99901 11.9399 2.74351
8000 1 1 3.99827 12.9523 1.64593
1561 1 1 3.67907 15.3107 3.90571
7403 1 1 6.49767 14.3646 3.73378
1210 1 1 7.08811 13.6573 2.1568
815 1 1 5.13813 15.3176 3.86609
227 1 1 10.2554 14.6456 1.93117
872 1 1 11.2358 14.5427 2.4356
7990 1 1 11.3493 13.5155 2.98926
6750 1 1 15.2928 13.4011 1.27152
6824 1 1 15.0124 12.7863 0.439298
6720 1 1 0.626726 14.0633 3.42585
7350 1 1 0.631358 12.9309 2.2323
7849 1 1 0.210752 16.6702 1.44477
643 1 1 2.27527 17.541 3.29283
2837 1 1 1.51353 14.7276 4.27516
7561 1 1 2.75888 15.8667 3.72676
1638 1 1 3.19403 15.8981 2.77819
1531 1 1 2.70694 15.0086 3.12302
154 1 1 3.63801 16.1993 1.64765
584 1 1 4.50726 14.3536 3.58542
1047 1 1 5.73224 16.3105 4.10979
1178 1 1 9.21429 13.8749 0.895676
286 1 1 11.5314 13.5109 1.95298
823 1 1 7.96068 13.4876 2.80336
1170 1 1 11.0047 15.1947 0.887126
1706 1 1 14.2843 12.6905 3.39742
423 1 1 12.3709 14.1789 1.57997
22 1 1 11.9292 15.232 1.16533
2345 1 1 14.5408 14.4765 1.72959
1042 1 1 15.9201 15.3676 1.90978
6535 1 1 13.4952 13.9857 37.3784
425 1 1 15.8635 14.2312 1.50755
375 1 1 16.9102 15.1751 3.06202
6905 1 1 15.9316 13.5903 0.19523
1567 1 1 17.3456 14.149 1.99264
163 1 1 18.1015 14.7161 1.40967
7811 1 1 17.9833 15.896 1.79796
6592 1 1 18.1011 17.3276 37.2074
2367 1 1 17.6938 16.9763 1.69603
7999 1 1 18.5952 15.4783 0.779195
608 1 1 0.985679 16.2976 2.42893
1146 1 1 2.04081 16.4408 4.21006
682 1 1 2.06125 16.131 2.544
1140 1 1 2.36784 17.8208 0.482141
834 1 1 3.6878 16.4629 4.11835
1453 1 1 4.15735 18.1746 1.31324
7180 1 1 6.47514 16.4403 0.528965
1328 1 1 4.42072 16.5707 2.23439
7926 1 1 5.71965 16.5168 3.10774
7698 1 1 6.21599 17.2771 2.24251
141 1 1 8.39857 16.1465 3.56918
7700 1 1 9.27861 15.4836 1.56341
6027 1 1 10.5883 16.9798 1.88921
1133 1 1 10.5933 16.7347 4.26829
726 1 1 12.6067 16.9085 2.14083
7987 1 1 12.5659 18.052 1.9321
1590 1 1 13.8525 16.142 4.80322
1200 1 1 15.8093 17.7111 2.53155
7163 1 1 14.7895 16.8804 3.09154
7188 1 1 18.2863 17.9191 3.16108
7968 1 1 2.15881 18.766 1.60757
7887 1 1 2.00914 17.7111 2.02773
7581 1 1 6.33947 17.4079 1.30658
1094 1 1 3.12666 17.5127 3.95919
7119 1 1 4.05705 17.5681 3.06755
2824 1 1 5.84482 1.46612 3.59822
7503 1 1 6.5661 0.305751 1.33089
1582 1 1 9.05195 16.1642 2.37983
841 1 1 8.1504 16.8484 2.09736
814 1 1 9.41548 16.4803 1.4222
7588 1 1 10.9794 0.0355856 2.18427
708 1 1 10.5101 17.5843 0.854291
7745 1 1 11.6653 18.605 1.57943
2020 1 1 10.1972 0.548591 1.26754
421 1 1 13.6534 18.1871 4.03952
788 1 1 16.574 18.5666 2.07546
33 1 1 16.4482 17.0581 0.626657
525 1 1 16.6466 0.545261 36.9321
7903 1 1 18.0575 0.329482 2.71801
310 1 1 18.4788 1.59909 4.70415
552 1 1 0.604334 18.3534 3.86068
915 1 1 1.93231 0.236316 4.19849
7123 1 1 5.9582 0.480132 2.97065
293 1 1 6.59635 0.718454 4.32298
1488 1 1 5.63867 17.5385 3.34996
96 1 1 8.96509 2.4214 3.75952
7535 1 1 8.29408 18.6543 2.30009
1339 1 1 9.56605 18.2711 2.32576
7619 1 1 8.20199 0.0966926 3.93531
239 1 1 9.36108 17.7861 4.40778
7616 1 1 8.60091 18.7947 0.67349
700 1 1 11.5807 0.163933 3.1264
7478 1 1 13.4538 0.211688 2.06675
6673 1 1 12.9891 18.7853 2.92498
7155 1 1 11.9178 1.28192 4.83039
1992 1 1 13.9798 0.398785 4.77476
671 1 1 12.4945 0.782404 3.27247
383 1 1 14.019 1.67932 2.87001
1229 1 1 15.0809 3.56292 5.45247
7914 1 1 17.1923 1.48044 4.07758
7549 1 1 17.3754 1.73155 2.95108
1020 1 1 14.7298 2.5549 3.23795
558 1 1 16.9907 0.121233 4.47047
1223 1 1 16.5126 18.2285 5.59379
727 1 1 3.31596 0.749455 3.70317
1373 1 1 0.296115 0.431141 4.73082
7754 1 1 5.20168 0.176434 2.01176
2126 1 1 7.65693 2.9453 2.14046
593 1 1 8.77993 1.43719 2.80663
528 1 1 10.4508 2.03664 3.53739
7287 1 1 13.6304 0.508721 3.5072
180 1 1 11.8095 0.558327 4.06856
906 1 1 14.9878 1.41151 3.5785
636 1 1 15.0448 3.62638 4.0221
874 1 1 16.3604 3.18345 4.1221
6975 1 1 1.53986 3.68341 3.0697
1202 1 1 3.85442 3.84032 4.50329
2365 1 1 4.07321 2.99154 5.59667
936 1 1 3.49132 1.70875 2.69512
1376 1 1 4.97533 3.23907 3.9518
7648 1 1 7.61048 2.22413 5.41897
1378 1 1 7.80033 3.11859 4.29139
1309 1 1 7.02239 3.47471 3.47873
890 1 1 9.3508 4.48543 4.55643
1416 1 1 8.35771 2.74026 1.28702
173 1 1 12.0461 1.47121 2.03381
7250 1 1 13.7999 3.06987 3.27975
1826 1 1 12.9887 4.13658 4.60009
1336 1 1 15.3452 4.43018 4.78131
7776 1 1 14.7885 4.45317 3.4464
1672 1 1 16.7694 2.56253 4.83949
148 1 1 17.0832 3.30211 2.51261
1718 1 1 2.32925 0.442977 3.24628
7122 1 1 1.96845 1.80279 3.65356
7950 1 1 18.4057 4.50113 3.74693
62 1 1 2.43772 3.17311 5.17643
580 1 1 4.03111 5.03444 3.18574
1409 1 1 5.23151 4.55317 3.94681
358 1 1 4.87488 3.85417 4.75707
440 1 1 6.49472 5.61827 4.01275
1809 1 1 7.79338 5.10954 4.57781
488 1 1 8.55267 5.719 4.1891
1076 1 1 8.4433 4.76276 2.60845
469 1 1 9.03177 4.62244 3.49899
140 1 1 10.1333 4.37618 3.72063
2736 1 1 11.231 3.8708 3.40369
7625 1 1 9.09369 4.46906 1.61702
1377 1 1 13.8616 5.17421 2.06131
2305 1 1 11.4847 2.99545 1.40063
958 1 1 13.3443 6.47817 4.11122
850 1 1 12.072 4.84326 4.58907
1438 1 1 14.7896 5.19037 4.38345
1348 1 1 16.8314 4.21859 3.04938
2071 1 1 17.7535 4.19768 5.7975
913 1 1 0.352923 5.56228 4.41729
481 1 1 0.0303219 5.99715 3.40536
928 1 1 3.99663 4.95371 4.9709
98 1 1 1.42536 5.85449 4.52577
983 1 1 4.17982 7.04607 3.18829
114 1 1 4.67373 8.27429 3.02465
1427 1 1 5.11864 7.34045 4.3786
7718 1 1 5.78388 5.08284 2.16658
1052 1 1 6.3852 5.42143 5.09571
7138 1 1 8.43553 6.41985 3.08054
7823 1 1 7.47051 6.32291 4.81644
1051 1 1 8.28937 7.90024 3.9586
153 1 1 10.5222 5.64312 4.22838
557 1 1 10.3636 7.91377 4.08644
1759 1 1 11.6907 5.81385 2.52691
1070 1 1 14.669 5.61004 5.40947
387 1 1 11.6749 3.90899 2.12204
7273 1 1 14.6228 7.03883 2.46017
2197 1 1 13.4996 7.31256 2.40559
470 1 1 12.3812 7.13498 4.80388
1925 1 1 14.9574 7.79572 4.73519
602 1 1 17.0404 6.35911 4.21256
1939 1 1 16.8304 7.3985 6.29733
7444 1 1 15.0368 8.04536 2.57241
1275 1 1 18.0507 8.24336 5.27306
144 1 1 15.9916 5.32946 3.39342
1793 1 1 18.5828 7.90024 4.09284
1709 1 1 17.869 7.09036 4.78286
959 1 1 1.63673 9.48682 3.53968
1596 1 1 2.44977 6.90742 1.71595
7395 1 1 3.19778 7.67046 5.18674
403 1 1 2.07515 8.01203 5.9199
1475 1 1 6.59338 8.52131 2.61755
1883 1 1 5.32984 6.01671 2.4555
7659 1 1 3.12053 6.87991 2.77401
45 1 1 7.53966 10.1745 5.05562
1177 1 1 6.25804 6.66637 3.42101
7701 1 1 4.43035 9.94365 4.24772
1301 1 1 7.3858 8.26534 1.82974
1008 1 1 9.73795 10.7427 4.61077
980 1 1 9.70479 6.46918 4.29689
7654 1 1 11.6721 6.11637 4.61518
519 1 1 11.3532 8.17876 4.84425
1478 1 1 16.0835 9.24797 2.93279
1441 1 1 13.2832 7.30908 1.43701
736 1 1 17.2861 9.01694 2.11681
1631 1 1 17.9691 7.07337 3.65288
1715 1 1 17.5959 8.18464 3.39872
628 1 1 16.0675 6.99086 5.09671
1942 1 1 18.7906 7.62488 3.13772
2239 1 1 0.633912 9.15412 5.40429
1917 1 1 1.54422 9.72094 2.5042
2084 1 1 2.54408 9.54811 5.81976
7791 1 1 4.42487 9.18178 2.09492
1003 1 1 3.93336 10.5679 6.34573
344 1 1 5.87342 9.56279 1.54443
345 1 1 8.83923 10.697 3.29122
1001 1 1 7.85768 11.2851 5.27786
1649 1 1 10.0966 8.49777 5.07732
7461 1 1 9.98115 8.5442 2.94832
231 1 1 11.3476 7.09698 4.42615
241 1 1 9.37626 10.3309 2.25914
944 1 1 13.7237 7.89402 4.87687
1422 1 1 15.6892 8.53772 2.10442
108 1 1 16.0055 9.36419 1.31436
1350 1 1 0.0508838 9.87279 4.37572
6972 1 1 0.520746 11.1467 3.98246
667 1 1 1.21989 9.79902 4.5505
7603 1 1 2.15681 11.3331 4.12219
1878 1 1 2.13881 12.2163 5.12025
7805 1 1 4.02817 10.7027 3.39094
6683 1 1 6.29808 11.7701 2.87777
639 1 1 4.14068 10.8201 2.34207
478 1 1 6.59291 10.3922 3.43439
290 1 1 7.15269 9.52428 2.1006
3250 1 1 9.42207 9.02991 1.73793
1069 1 1 9.32111 7.95112 4.23406
1530 1 1 8.35857 13.2494 4.92605
1825 1 1 9.66455 12.4963 4.2968
136 1 1 11.6836 10.9364 6.45801
1175 1 1 11.911 10.8232 4.60577
2062 1 1 10.4375 10.4225 3.71437
1460 1 1 13.0938 9.83703 3.96921
638 1 1 15.0375 10.646 4.49687
1537 1 1 13.4048 10.7423 3.50785
1183 1 1 14.9989 9.25653 2.56815
1189 1 1 14.5244 11.4088 3.44488
790 1 1 17.7019 10.3429 4.78851
1965 1 1 16.9569 12.2474 4.7568
877 1 1 18.7238 11.8434 3.07515
1968 1 1 1.11948 12.2542 3.8131
6563 1 1 2.25026 13.0814 2.66774
1128 1 1 4.73191 14.4616 2.1232
1445 1 1 1.38443 14.4627 1.99476
2748 1 1 3.26559 12.8341 3.53819
1486 1 1 3.98212 13.7173 2.41976
365 1 1 5.14683 10.9722 3.34363
684 1 1 6.19882 13.1968 3.17011
1046 1 1 8.09869 11.3426 3.40921
1224 1 1 9.973 11.4041 2.30704
1103 1 1 10.7128 12.639 2.28649
1357 1 1 11.0651 11.6259 5.93064
1112 1 1 13.3668 11.2176 4.77288
386 1 1 13.3821 11.9816 3.19494
7858 1 1 15.3872 12.2486 3.5299
6599 1 1 15.9883 12.4759 2.57587
1107 1 1 14.7784 13.6374 3.58543
235 1 1 16.1155 10.1086 3.61488
7052 1 1 17.1191 13.0645 1.81961
7993 1 1 15.8033 12.6245 4.74709
265 1 1 17.085 11.0988 5.28306
1005 1 1 0.678773 11.5691 1.96635
6674 1 1 0.970737 12.2464 5.51135
1276 1 1 18.2776 11.2401 4.29569
724 1 1 1.22377 13.6342 5.44387
85 1 1 2.84322 13.8704 3.63308
336 1 1 1.10095 13.0531 3.18877
325 1 1 5.57494 13.9677 3.69844
1958 1 1 4.15168 12.7722 4.46972
1504 1 1 6.04963 13.8205 5.50256
7464 1 1 7.17051 13.0812 3.54398
7620 1 1 9.87977 15.1372 2.91514
2425 1 1 9.43773 14.3038 3.3934
1545 1 1 9.27694 12.2694 2.95876
1174 1 1 10.8918 12.5822 4.2405
7550 1 1 12.8513 15.0174 3.04447
7040 1 1 14.3185 13.1653 2.17918
1187 1 1 13.7039 13.6953 3.30952
389 1 1 15.9427 13.5815 3.61525
2414 1 1 14.3074 14.3992 2.68638
670 1 1 18.0701 14.752 2.54339
7515 1 1 17.1794 14.3163 4.29978
6719 1 1 17.0429 11.6244 2.86731
306 1 1 1.04978 10.7009 4.81301
712 1 1 17.0014 13.1856 2.90089
2358 1 1 0.440565 14.9201 3.88388
1086 1 1 1.18521 15.6906 3.30915
393 1 1 0.782264 14.984 2.55608
1173 1 1 1.1822 15.6519 6.24978
7840 1 1 4.63243 16.0727 4.47532
971 1 1 3.52409 15.4473 4.9614
260 1 1 3.0116 13.2304 4.51144
1912 1 1 6.69394 14.8612 1.83492
1266 1 1 6.79496 16.1846 5.10298
1932 1 1 5.70864 16.9335 5.06918
7984 1 1 8.93477 13.2074 3.88739
504 1 1 6.84925 15.1651 2.83405
411 1 1 8.90963 15.3028 4.73094
468 1 1 10.8121 14.4992 5.42227
2224 1 1 12.7976 14.6291 3.99237
7855 1 1 15.156 15.0785 2.69093
1474 1 1 16.07 14.0276 2.53957
1916 1 1 15.0763 16.5858 0.104702
982 1 1 15.6695 15.9497 3.06167
1087 1 1 16.8235 14.2567 3.28387
1234 1 1 17.7283 13.9495 3.11256
853 1 1 0.204088 17.2967 3.73142
2776 1 1 18.0452 16.6937 3.95234
2033 1 1 18.6174 17.0102 2.68591
809 1 1 0.874934 17.3998 5.60145
728 1 1 3.30892 16.9518 2.80124
7957 1 1 4.16384 17.3343 4.41789
902 1 1 6.18407 15.4703 3.56362
1485 1 1 4.25822 15.3497 2.87759
937 1 1 4.7254 16.6963 3.56302
1179 1 1 5.48748 15.7405 4.94443
391 1 1 7.17636 16.0181 3.54416
394 1 1 7.25295 18.4549 4.1474
1527 1 1 4.16072 14.5833 5.04454
1500 1 1 7.09996 17.4926 3.2115
460 1 1 9.44881 16.0643 5.50713
7176 1 1 7.9214 17.0544 3.06176
256 1 1 11.9673 14.8125 3.33316
781 1 1 11.3536 16.0067 3.58582
7230 1 1 12.4281 15.9258 2.59661
818 1 1 14.9142 16.1606 3.90803
2150 1 1 15.717 17.3871 1.45465
1167 1 1 12.7499 0.117933 4.6245
1119 1 1 13.6624 16.717 3.29492
443 1 1 16.7855 16.1072 3.36739
1539 1 1 15.6558 17.149 4.09297
990 1 1 16.0859 18.0784 3.51379
1149 1 1 18.8154 16.4356 4.64862
1007 1 1 16.8529 17.1409 3.72198
2471 1 1 18.248 18.4843 4.05591
397 1 1 2.43298 18.182 4.68573
1198 1 1 1.46685 0.189 2.37963
1514 1 1 2.98093 16.6002 4.82452
2285 1 1 5.04173 17.6074 2.36972
7197 1 1 4.9839 17.0921 5.98391
7613 1 1 5.66998 16.6511 1.64665
829 1 1 7.05321 18.2517 1.73733
3576 1 1 6.98175 16.4303 2.49054
94 1 1 9.25132 18.4643 3.61681
1687 1 1 8.70161 17.7398 2.47474
885 1 1 11.5818 16.98 2.78607
2270 1 1 14.2816 18.3043 2.97699
149 1 1 14.648 17.0671 4.29768
7911 1 1 16.0434 1.21792 1.41078
7 1 1 18.3305 1.7397 3.52712
785 1 1 0.593169 18.5341 5.40762
427 1 1 17.0943 18.2374 3.18568
1205 1 1 18.0958 0.40666 4.98108
430 1 1 1.80446 17.3758 4.81689
845 1 1 3.32271 1.99358 4.41975
105 1 1 4.24574 18.5523 4.73756
1367 1 1 4.27052 1.55128 4.31232
894 1 1 3.23713 0.448486 4.85128
1442 1 1 4.97832 1.29862 5.26364
7896 1 1 6.34056 1.03266 5.26388
1776 1 1 6.12104 18.6293 5.33352
2176 1 1 7.41207 1.29576 5.01103
209 1 1 8.78954 2.24744 5.58504
7762 1 1 7.08795 0.310122 5.35271
7997 1 1 11.1456 0.272838 5.22377
1505 1 1 10.7334 17.9158 2.88374
7989 1 1 11.6155 1.52322 3.76626
553 1 1 12.3131 2.88826 4.93345
1587 1 1 12.8754 1.17062 4.70911
946 1 1 16.2629 1.54324 3.25742
859 1 1 14.9728 0.376232 3.16004
870 1 1 14.5925 0.796123 5.71896
1999 1 1 15.7801 0.467345 3.73876
7601 1 1 17.4087 1.97764 5.26517
2681 1 1 0.0982355 0.516343 5.97063
954 1 1 1.37839 0.325952 5.5085
547 1 1 3.11186 3.06523 2.88282
1279 1 1 4.1936 2.60364 4.59432
951 1 1 5.63859 2.27119 7.33373
1355 1 1 5.71324 2.746 5.3091
1852 1 1 7.84768 1.72619 2.23417
1181 1 1 9.08941 4.21359 5.74916
2054 1 1 9.38232 3.68936 3.91448
824 1 1 9.2503 1.3072 3.81705
587 1 1 10.1287 2.20653 6.42081
3337 1 1 9.84068 2.0969 4.33937
1308 1 1 12.2016 3.00944 2.65465
1749 1 1 10.1582 18.3769 4.06553
1317 1 1 11.7731 3.1525 6.73063
1203 1 1 13.2601 2.40778 4.40488
1661 1 1 15.1993 2.14278 5.84559
1755 1 1 13.6635 2.61993 6.73927
780 1 1 13.9283 3.02496 4.99577
1345 1 1 14.1112 2.05708 5.96593
7044 1 1 15.5814 3.84824 7.87917
409 1 1 14.8131 1.41723 6.48429
2323 1 1 16.2295 2.05597 5.5306
151 1 1 16.555 2.57563 2.93504
109 1 1 0.859661 2.47667 3.60371
139 1 1 1.62874 1.33026 5.45045
412 1 1 2.10177 1.92504 6.88027
7028 1 1 3.87064 3.36251 6.93112
1930 1 1 4.45666 1.04367 3.32911
848 1 1 5.48454 4.44762 5.41506
656 1 1 4.94869 2.05512 3.82415
1323 1 1 6.86728 3.33435 5.20148
1255 1 1 7.99142 1.12112 3.70154
7843 1 1 8.24796 6.40082 5.40403
2397 1 1 6.50778 4.23294 4.65674
1089 1 1 4.79248 3.70938 7.29283
492 1 1 9.85205 2.82358 3.36035
7219 1 1 7.08588 4.35882 6.47819
1039 1 1 10.768 0.519417 4.07811
2139 1 1 10.7491 3.08843 5.93583
898 1 1 9.75132 3.40693 4.9908
32 1 1 11.6686 3.89067 5.34618
1044 1 1 14.4601 3.08018 6.24846
7827 1 1 14.2517 1.90522 4.60508
591 1 1 13.9306 6.11552 2.855
1413 1 1 15.4018 2.62456 4.63282
1395 1 1 17.2535 3.43045 6.12258
1338 1 1 16.236 3.96009 5.36304
155 1 1 0.821129 4.65438 3.69882
6804 1 1 18.6602 4.64126 4.79026
1717 1 1 1.55789 3.53088 4.75624
1241 1 1 1.09278 3.00975 6.64183
7661 1 1 4.64785 3.98586 5.86563
729 1 1 5.29329 5.90809 3.57862
1159 1 1 6.92669 6.30753 5.71395
1280 1 1 5.87748 8.57552 3.8676
1099 1 1 5.47918 6.0886 5.63528
454 1 1 8.14517 4.66279 5.45767
1664 1 1 10.7109 3.80034 4.45392
6463 1 1 12.2367 5.83412 3.83891
2221 1 1 12.283 4.02086 3.69025
985 1 1 12.8694 3.04037 3.76412
7712 1 1 13.5154 4.95917 5.01552
2392 1 1 15.971 6.23392 4.54873
2075 1 1 14.3106 4.28268 4.78757
914 1 1 17.0141 4.70776 3.97044
6443 1 1 17.5521 3.61839 3.83095
7228 1 1 17.1165 3.70661 4.83142
1538 1 1 1.72996 6.30495 5.96631
1443 1 1 2.9071 4.22172 6.05751
7651 1 1 1.33369 5.27861 5.453
523 1 1 2.43005 6.50211 5.19159
1543 1 1 5.49914 5.22309 4.67448
1754 1 1 3.94472 8.05567 4.65001
1410 1 1 1.75505 5.25296 6.6046
1802 1 1 5.4732 6.19813 4.53386
904 1 1 7.69413 6.64041 6.31646
571 1 1 7.90386 6.90868 4.10273
177 1 1 9.00715 5.62169 5.27689
6627 1 1 9.17969 5.12104 6.34225
685 1 1 10.717 5.86635 5.43853
1724 1 1 9.02525 7.08756 5.09723
102 1 1 13.9439 5.34833 6.38773
1519 1 1 11.1882 5.90882 6.69968
281 1 1 11.172 4.84294 3.78359
1291 1 1 14.7895 6.47848 6.53484
908 1 1 16.1922 6.64929 6.49818
7804 1 1 14.2259 7.05863 3.35896
7352 1 1 15.6717 7.46393 6.14506
2645 1 1 16.0139 7.92221 4.49635
7308 1 1 16.3234 5.30307 6.62492