ITEM: TIMESTEP
4900
ITEM: NUMBER OF ATOMS
8000
ITEM: BOX BOUNDS pp pp pp
0.0000000000000000e+00 1.8820720577620570e+01
0.0000000000000000e+00 1.8820720577620570e+01
0.0000000000000000e+00 3.7641441155241139e+01
ITEM: ATOMS id mass type x y z
7265 1 1 1.8249 18.3329 1.21918
2134 1 1 2.51836 17.5117 0.390429
7560 1 1 1.18377 4.93747 36.5599
6076 1 1 7.03679 0.0682011 0.243045
2026 1 1 4.92043 2.57824 1.57155
605 1 1 8.00433 18.8231 2.52615
6017 1 1 9.49508 0.894746 0.789709
6703 1 1 10.132 4.03575 1.14479
6509 1 1 9.21155 15.9707 37.1068
7821 1 1 13.263 0.393486 37.2007
382 1 1 14.2063 1.09354 37.4665
7938 1 1 15.2801 3.45617 3.15647
742 1 1 14.586 1.57622 3.92194
1269 1 1 13.0361 2.18989 1.71861
7293 1 1 16.9706 1.45384 37.1344
7690 1 1 0.0483664 1.13439 0.184069
7261 1 1 2.93476 18.7789 2.27319
7604 1 1 1.58069 0.590994 0.658723
6995 1 1 3.8807 2.53365 1.35202
402 1 1 4.74358 3.61861 0.569677
816 1 1 1.9013 1.75612 0.522716
6459 1 1 3.72219 17.0968 1.10543
7585 1 1 2.19139 18.4292 2.83732
3 1 1 3.58917 3.97236 3.58285
497 1 1 7.17561 0.681305 2.44853
1168 1 1 4.56953 1.38114 2.74771
7725 1 1 10.6255 1.26412 37.5911
89 1 1 8.21941 1.15751 2.56844
7994 1 1 10.0688 1.05068 35.1961
1333 1 1 13.3084 3.20195 36.833
1037 1 1 15.407 2.79491 36.8368
7471 1 1 17.8954 0.981751 1.64604
1540 1 1 15.982 3.7368 36.4637
1713 1 1 18.2993 4.59177 0.173423
6152 1 1 0.752516 4.67673 4.33573
1239 1 1 18.84 4.03386 3.46265
7091 1 1 1.53197 3.75551 36.4638
7456 1 1 2.67571 3.78041 0.815657
802 1 1 3.27534 4.70547 0.386748
7653 1 1 6.09008 3.33964 1.50617
7300 1 1 5.96704 1.87463 4.14494
7667 1 1 6.10782 2.35825 0.878637
7919 1 1 8.09739 18.6769 36.0653
633 1 1 7.25272 2.17883 1.23672
529 1 1 10.9029 2.46774 35.7797
7010 1 1 12.2177 3.37635 1.03477
1380 1 1 13.0142 4.98522 0.82958
446 1 1 13.713 3.63697 2.98382
434 1 1 13.2046 4.47343 36.2337
7432 1 1 18.2066 5.1462 2.53161
7636 1 1 15.3921 4.19467 5.21659
2160 1 1 15.5875 5.00659 0.982151
5397 1 1 1.15291 5.8698 0.0508605
6199 1 1 16.1947 3.70302 37.5946
68 1 1 0.182607 5.00252 36.2334
924 1 1 1.04162 6.92905 0.701783
1237 1 1 3.3214 4.44258 2.22656
7366 1 1 1.68563 5.61822 4.29912
72 1 1 18.3029 7.70009 2.5463
489 1 1 1.9325 2.29428 2.75131
1885 1 1 5.18165 6.48841 33.4638
568 1 1 5.54975 6.54629 1.22813
323 1 1 6.83535 3.81041 37.301
796 1 1 6.64772 6.64917 37.3247
1369 1 1 10.8154 5.48455 1.49762
1045 1 1 6.43498 4.99851 0.362895
6691 1 1 9.92771 2.78339 0.191528
2232 1 1 12.9898 6.95359 36.8165
502 1 1 13.2867 3.68803 34.4976
7866 1 1 9.40564 7.662 37.0091
1329 1 1 13.8004 6.22059 1.58887
1109 1 1 13.5507 5.55873 0.0156022
7796 1 1 12.2421 4.88654 35.9479
6828 1 1 15.3124 4.29814 35.0206
7972 1 1 15.6011 5.75024 0.311958
75 1 1 18.144 6.26529 1.44574
2357 1 1 1.37306 8.47898 2.71495
6561 1 1 17.438 8.41668 1.8029
7944 1 1 3.61866 6.75425 2.53678
15 1 1 3.70872 5.5791 1.54606
7322 1 1 5.63873 7.07596 2.16563
7699 1 1 5.33553 5.1452 37.4185
7663 1 1 7.65078 5.81057 1.39784
5747 1 1 7.33535 4.76305 37.1602
7924 1 1 6.23195 6.43354 2.56067
6538 1 1 9.62365 7.51501 1.00353
5690 1 1 10.6588 9.11091 2.74501
378 1 1 8.98944 8.89692 2.88933
7427 1 1 11.0686 4.62239 37.4524
7937 1 1 17.2187 5.38154 1.02222
5812 1 1 14.0731 7.20758 2.40771
7641 1 1 16.1928 6.6384 1.22986
107 1 1 17.1576 7.90214 37.1513
657 1 1 17.7165 6.0625 37.094
7351 1 1 2.37659 8.13914 1.5073
7544 1 1 17.2784 6.54157 2.08263
7841 1 1 0.547088 5.98798 3.77085
1314 1 1 0.654628 9.82073 2.66278
6874 1 1 6.90738 9.81019 1.42083
626 1 1 4.02463 8.31769 2.05515
997 1 1 3.53464 6.57723 1.09699
175 1 1 3.12866 1.25585 3.46534
6987 1 1 3.81688 9.75836 0.390123
7803 1 1 4.93775 5.84962 1.96499
1850 1 1 6.66028 5.6601 36.5757
7643 1 1 7.68689 11.0068 1.85439
6477 1 1 7.68844 7.17313 0.0715897
7748 1 1 8.19181 7.38198 1.143
6136 1 1 7.05045 6.86447 1.76881
7301 1 1 14.8169 4.28643 36.678
181 1 1 13.7378 6.81956 37.6033
461 1 1 12.4762 8.26723 0.872565
7983 1 1 14.0745 11.1915 2.65916
230 1 1 17.1131 7.24593 0.442893
186 1 1 18.1272 7.23227 1.10106
444 1 1 18.1116 6.44662 3.32608
550 1 1 15.1525 8.03634 35.0587
7795 1 1 1.88084 4.00835 2.70556
7451 1 1 17.749 10.9817 37.4453
2320 1 1 0.296876 8.89912 1.99913
222 1 1 4.21126 6.96234 37.2462
138 1 1 6.0028 11.5937 35.8084
331 1 1 5.39129 7.59045 0.443862
530 1 1 6.64617 8.07196 35.7885
1450 1 1 5.79104 7.21517 35.6264
7335 1 1 8.72864 9.04273 1.04636
53 1 1 9.96715 10.5141 37.4443
7891 1 1 8.58713 10.6585 0.793415
6669 1 1 10.9581 6.61552 1.41209
1790 1 1 8.02904 9.82518 1.3808
7826 1 1 16.6491 12.4704 0.489632
7932 1 1 13.6017 8.95257 36.5342
6997 1 1 14.6151 5.19764 36.8496
1359 1 1 14.4382 5.73701 0.444757
6705 1 1 16.169 7.44711 37.5027
84 1 1 0.250034 9.89248 1.698
200 1 1 4.00674 10.7103 37.1898
7011 1 1 2.0038 9.70621 36.6654
7897 1 1 3.67647 11.7128 35.418
453 1 1 7.43252 11.9656 3.08167
1512 1 1 8.35945 12.876 35.5841
1217 1 1 7.5274 10.4722 4.50855
1906 1 1 14.1202 10.1243 1.64904
6896 1 1 10.1158 9.51471 1.81165
7457 1 1 11.0593 11.911 1.07533
6699 1 1 12.7623 11.9624 0.912365
1193 1 1 13.2503 9.08549 1.9134
7512 1 1 15.0985 12.0996 1.42908
7022 1 1 1.76902 10.9675 37.2866
769 1 1 18.36 11.758 37.3746
7397 1 1 16.6156 7.3663 36.3453
1120 1 1 17.0876 10.5518 36.8888
1036 1 1 17.7637 9.81011 0.43959
7189 1 1 17.8914 12.6644 0.0491864
7927 1 1 2.79718 12.0365 4.02994
215 1 1 7.73983 12.6079 36.185
6578 1 1 3.14546 10.2099 1.40345
1211 1 1 5.72487 11.2086 1.86254
2373 1 1 6.42855 14.8152 37.4061
691 1 1 8.93158 11.5141 1.48215
7004 1 1 9.12874 12.6168 1.74299
255 1 1 6.57476 12.958 1.42701
993 1 1 10.8995 13.4577 37.404
765 1 1 8.94069 9.64691 2.01968
99 1 1 9.64333 11.6324 35.9535
1017 1 1 10.8203 11.8389 2.53731
6864 1 1 12.8992 12.4156 37.3344
296 1 1 13.0261 11.4736 1.93919
7452 1 1 14.531 11.1514 0.0107104
7075 1 1 13.8288 12.8379 37.5864
2017 1 1 15.9009 10.8268 1.72755
57 1 1 15.4274 12.9669 0.875098
973 1 1 15.8748 11.9295 2.73153
7772 1 1 0.330176 14.1895 1.63373
693 1 1 15.7931 12.3616 37.163
1116 1 1 1.53813 13.6215 2.49853
1282 1 1 2.11323 14.9991 2.50412
559 1 1 0.132853 15.111 1.01639
203 1 1 5.49623 14.4358 1.264
7139 1 1 6.42359 14.002 1.40481
813 1 1 5.36239 14.4882 37.4729
863 1 1 3.58439 11.7917 3.48376
17 1 1 6.58497 12.3996 36.4063
8 1 1 6.31787 13.5768 37.6324
7610 1 1 7.17867 13.5225 0.773994
6590 1 1 11.6799 12.6528 4.14981
738 1 1 12.8789 12.5589 3.47449
1081 1 1 8.41772 14.1652 0.144085
7489 1 1 12.4441 15.034 2.49818
6634 1 1 10.6154 10.3453 34.6515
7704 1 1 12.0507 13.3461 37.2852
7635 1 1 14.405 11.1487 1.00244
7853 1 1 14.9571 14.9149 0.539996
6788 1 1 18.5721 10.7717 36.1785
7888 1 1 17.336 13.6296 37.4787
113 1 1 1.63889 14.6662 36.7705
1928 1 1 0.669855 16.2478 0.546565
5597 1 1 18.7032 15.5248 36.7389
1529 1 1 3.30527 14.358 0.956364
311 1 1 2.80532 16.7711 1.32701
6321 1 1 4.53589 14.6296 1.34524
1082 1 1 2.96396 13.5097 3.50368
6379 1 1 6.99198 14.9786 0.987616
1729 1 1 5.72519 16.8635 0.809465
734 1 1 6.55461 14.9948 1.9188
67 1 1 9.207 13.3864 1.08797
7206 1 1 8.09432 16.0446 0.714807
660 1 1 12.8222 14.9539 0.55909
586 1 1 11.1963 13.1084 36.2081
377 1 1 11.7953 14.1578 0.68671
1143 1 1 13.7291 15.1848 0.823616
740 1 1 14.0018 15.6956 37.4839
7834 1 1 13.1044 14.154 1.56336
6399 1 1 13.5081 12.2588 36.5038
6723 1 1 15.4851 18.2116 0.754988
237 1 1 14.8189 13.604 0.620782
465 1 1 17.4812 15.2337 36.8089
129 1 1 16.9793 16.486 1.98783
7483 1 1 16.4868 14.0272 0.972616
1192 1 1 1.31693 17.1983 0.0671683
7525 1 1 18.5964 16.9666 37.1648
192 1 1 2.03192 17.6982 36.0067
795 1 1 3.65877 15.0135 2.93868
1446 1 1 3.51128 16.3187 1.9004
7543 1 1 8.96365 15.5546 4.0944
7767 1 1 5.41116 17.1714 37.5206
749 1 1 7.87718 15.7386 1.94305
7678 1 1 7.19697 18.3461 1.31746
419 1 1 6.20446 15.8336 37.3258
1064 1 1 10.2034 16.5891 34.4844
38 1 1 9.70376 14.3629 0.59561
7779 1 1 11.3173 16.1376 1.07086
7508 1 1 12.5454 17.4155 36.1809
6636 1 1 14.2728 18.3595 1.01503
1584 1 1 12.5005 14.3253 36.8287
1134 1 1 11.6162 15.2614 0.883458
501 1 1 14.2432 14.3417 1.08983
3499 1 1 17.5868 18.1916 0.787286
2038 1 1 16.3843 16.928 1.05284
7390 1 1 15.4147 16.9328 36.7886
7787 1 1 16.6272 14.8863 1.3438
5999 1 1 0.964517 17.067 1.03849
314 1 1 16.3836 2.31863 3.27461
1569 1 1 0.253392 18.2499 0.91563
7210 1 1 3.9146 0.621672 0.567726
1257 1 1 5.41548 0.767526 0.930255
1895 1 1 7.7984 17.6736 0.127413
43 1 1 5.92084 18.7771 0.393935
292 1 1 7.93681 17.3975 2.3125
287 1 1 5.46692 0.883127 37.1909
55 1 1 9.53246 17.9246 4.16188
6822 1 1 6.96621 16.3946 36.3526
496 1 1 10.5745 18.521 37.21
224 1 1 9.21772 18.1839 36.5164
7713 1 1 10.4642 16.7385 37.4461
343 1 1 12.7906 18.3707 0.909353
2661 1 1 13.9863 16.8102 1.2066
31 1 1 14.0874 1.29431 2.5184
7149 1 1 13.4166 16.9555 2.12779
1110 1 1 14.6516 17.6087 2.09482
1785 1 1 13.312 18.2281 2.35663
843 1 1 14.5692 15.8804 36.4129
847 1 1 1.08559 17.1519 4.25209
47 1 1 1.31366 2.4818 0.58432
7647 1 1 0.028171 0.825145 2.08169
399 1 1 4.71382 16.939 1.55549
1327 1 1 3.20719 17.8062 2.67281
860 1 1 4.02648 18.4583 4.03524
487 1 1 5.09773 18.5381 2.24791
480 1 1 4.55035 1.87032 4.02924
450 1 1 10.1219 17.6035 2.34706
7996 1 1 9.098 17.7131 2.774
6851 1 1 8.72522 14.7375 2.72704
1658 1 1 9.53869 0.303697 3.30476
887 1 1 12.8255 16.7344 37.093
543 1 1 9.8302 2.21247 1.25484
1344 1 1 15.7541 0.276065 1.04185
576 1 1 0.696276 2.50892 1.65698
7930 1 1 14.9416 1.34038 0.927522
745 1 1 18.2499 0.392733 37.4148
328 1 1 1.95726 18.1978 37.121
762 1 1 0.0602091 5.06098 1.31857
115 1 1 0.491297 1.45852 1.17962
445 1 1 3.81598 0.536453 1.62764
7284 1 1 2.99626 3.08636 3.0103
2046 1 1 4.84573 0.333835 3.31765
611 1 1 2.26615 2.24161 6.00235
6986 1 1 7.71849 2.60603 3.57155
7215 1 1 7.40379 3.56092 2.99115
566 1 1 6.53122 2.52755 1.87292
7785 1 1 9.45515 1.0682 2.05101
505 1 1 11.4407 0.318612 2.49234
385 1 1 8.58262 2.12629 2.67595
1213 1 1 12.0947 0.98188 3.018
7844 1 1 18.7689 3.37786 1.98162
1670 1 1 13.174 4.55763 4.23459
511 1 1 16.1447 4.14482 1.19298
1634 1 1 1.89675 1.43917 1.68743
7440 1 1 18.1911 2.16912 1.95963
7669 1 1 15.1344 2.32173 1.17149
1231 1 1 17.7602 1.20067 0.176668
966 1 1 17.7897 4.13739 2.02871
6882 1 1 4.17518 5.60535 3.77479
479 1 1 7.14773 3.79138 4.13919
318 1 1 2.77317 0.37682 1.32927
7251 1 1 4.207 4.46989 1.77917
1331 1 1 6.53433 1.44326 2.82823
527 1 1 6.25888 4.17692 3.30839
7532 1 1 7.40761 4.68592 1.21187
6767 1 1 5.30511 4.38352 2.2856
6659 1 1 8.71481 2.01769 1.64251
2348 1 1 8.30553 3.33486 0.0653644
886 1 1 8.67638 3.08878 2.27037
91 1 1 12.0091 5.04273 2.37534
1004 1 1 11.2056 2.4244 37.0811
7246 1 1 14.9439 3.9382 1.95303
581 1 1 13.8944 4.91764 2.59683
1473 1 1 15.3779 5.00234 2.31156
18 1 1 17.7215 2.24638 1.04493
537 1 1 13.1059 4.18103 5.4181
6648 1 1 18.4135 3.5996 0.666591
35 1 1 15.2977 5.94279 1.56631
1265 1 1 18.7554 2.67726 3.93408
7966 1 1 0.879139 6.39677 2.94841
406 1 1 1.41346 3.51965 4.42338
835 1 1 3.85124 3.59797 1.54771
1287 1 1 3.22043 4.96824 4.29349
548 1 1 6.53441 5.99204 1.35462
5739 1 1 8.78877 5.04706 3.20476
1466 1 1 7.34749 6.27737 2.82626
661 1 1 7.3008 4.45427 2.58111
464 1 1 8.75748 3.93692 1.07787
1379 1 1 7.93975 6.52161 4.97459
7611 1 1 12.8026 6.14956 1.53991
7666 1 1 10.2277 3.31615 2.76264
6541 1 1 13.9569 3.91964 1.9038
7468 1 1 15.8321 5.60735 3.18466
2432 1 1 14.7161 5.44756 4.18417
6762 1 1 2.22403 6.58856 0.314139
1983 1 1 17.5345 5.19939 37.3209
651 1 1 16.1861 4.44036 2.6397
2110 1 1 0.158737 9.51112 3.80497
206 1 1 0.500464 7.00513 1.88057
1766 1 1 2.02829 3.14382 1.93259
1158 1 1 2.4425 5.68985 1.47853
7879 1 1 4.95943 5.0692 1.21102
158 1 1 3.4634 4.98544 3.1414
585 1 1 7.87076 5.47351 3.21111
623 1 1 9.30772 4.22632 2.38342
7096 1 1 9.40156 6.37345 0.530693
2103 1 1 10.751 5.11271 4.27125
934 1 1 9.99493 5.25323 2.29545
7904 1 1 8.96433 6.79178 1.37525
1833 1 1 14.7176 7.73289 3.30385
6316 1 1 14.2406 6.3633 4.30139
7758 1 1 14.8208 3.46585 6.15923
431 1 1 12.2201 6.74828 5.85399
7679 1 1 17.9011 3.67575 37.0563
34 1 1 0.264016 6.13904 0.981942
190 1 1 18.7 5.26061 3.78672
1318 1 1 1.27958 7.84375 1.11533
1113 1 1 1.82406 9.64523 3.79696
408 1 1 5.49814 11.1205 4.13824
565 1 1 18.3244 6.33486 0.273521
7683 1 1 1.70752 7.10209 3.31723
532 1 1 7.63539 12.0363 37.2236
7921 1 1 7.20471 6.46788 0.567189
7862 1 1 5.14509 7.55797 3.11843
570 1 1 10.0633 8.04187 1.83851
7002 1 1 10.8134 10.355 0.862105
697 1 1 8.45729 5.15453 0.668005
7422 1 1 9.83837 6.7194 1.96973
1330 1 1 11.8801 5.97762 0.931477
193 1 1 12.2327 6.79956 0.595471
1262 1 1 12.3287 3.8061 2.99312
498 1 1 15.0986 7.52302 0.562449
271 1 1 14.4765 5.5043 1.79781
1000 1 1 17.7519 8.29699 3.5645
6675 1 1 18.8165 7.45125 3.86617
6875 1 1 17.2759 9.19052 2.71387
996 1 1 2.73746 10.6575 5.49645
1105 1 1 3.71868 8.7451 5.03237
289 1 1 2.55853 10.9635 36.6158
7967 1 1 2.02419 7.04978 1.16958
7248 1 1 3.79221 9.74559 6.00058
1093 1 1 2.36934 10.708 2.19026
627 1 1 7.91753 11.8935 1.19766
541 1 1 6.44426 7.64943 2.04448
2065 1 1 7.20219 9.51198 4.03411
1648 1 1 7.86054 8.11005 1.94556
7953 1 1 11.92 6.80305 3.87717
955 1 1 10.265 11.036 2.11374
615 1 1 9.2088 5.48156 37.5731
188 1 1 13.0385 7.17333 2.20101
276 1 1 15.676 7.56648 2.34254
676 1 1 14.5442 6.19778 5.28501
223 1 1 16.7432 7.57759 1.57365
960 1 1 15.5465 8.83794 2.46207
1863 1 1 1.95764 10.9459 3.48473
536 1 1 0.502068 10.0616 36.5997
1870 1 1 18.3897 9.44397 2.72805
1728 1 1 3.60116 10.6537 3.01551
7845 1 1 1.6118 10.224 2.94099
7474 1 1 1.46029 13.3659 1.24414
590 1 1 3.8575 11.1668 6.62693
715 1 1 2.25106 9.89039 4.66992
7326 1 1 5.14438 8.1715 2.29602
7576 1 1 8.59 11.9387 36.3158
925 1 1 4.39666 8.17539 1.12735
970 1 1 4.87271 10.4855 2.48539
825 1 1 8.63342 9.31354 5.30326
2418 1 1 4.19754 9.82359 36.7738
7531 1 1 9.38957 8.91889 3.83816
699 1 1 9.52401 11.9786 2.32033
1784 1 1 9.47853 8.64633 5.97446
7538 1 1 11.8356 10.0943 2.19807
7536 1 1 11.8797 11.8319 0.337022
610 1 1 12.5464 10.6099 2.76459
7851 1 1 15.0381 9.13034 0.939698
1533 1 1 15.2785 11.1131 3.43161
433 1 1 12.0518 11.3642 3.23556
285 1 1 13.7101 9.43634 4.26051
146 1 1 17.456 10.1619 2.98977
7480 1 1 16.4787 12.1033 5.43018
1637 1 1 2.97531 9.08309 0.943843
967 1 1 1.60543 11.9681 3.29505
7249 1 1 3.42121 12.1735 2.25965
647 1 1 6.28417 11.8994 37.4061
7482 1 1 2.75757 11.5055 3.04082
7376 1 1 4.13848 13.2779 3.69805
1163 1 1 7.12531 12.7899 3.80321
1417 1 1 4.49151 9.98801 3.80029
374 1 1 7.05415 8.1375 2.81853
277 1 1 10.0107 10.9118 3.29711
64 1 1 9.2961 10.9716 3.92058
1908 1 1 9.93889 14.9657 1.45587
1542 1 1 9.46256 11.1369 0.396049
7545 1 1 12.1367 13.2319 2.70505
6832 1 1 14.6532 12.2118 36.8904
574 1 1 14.0793 12.2233 1.88788
234 1 1 16.2089 11.6664 1.11917
683 1 1 16.0966 10.8978 2.85238
7867 1 1 18.6223 13.1115 2.31491
300 1 1 18.7386 10.5706 3.32413
757 1 1 3.06063 14.2475 2.11559
688 1 1 6.56599 12.0386 2.32995
8000 1 1 4.64718 12.487 0.972707
1561 1 1 2.44787 16.1425 3.92251
7403 1 1 6.65906 14.6636 4.44831
1210 1 1 7.69132 13.6611 2.74957
815 1 1 4.87021 14.7683 2.82008
227 1 1 10.6983 14.3841 0.347759
872 1 1 10.9414 14.4882 2.2483
7990 1 1 9.4282 14.0524 3.44676
6750 1 1 14.6153 12.1592 3.47683
6824 1 1 14.0098 13.4367 1.48375
6720 1 1 2.38873 14.2777 3.07764
7350 1 1 1.59649 12.3044 4.53961
7849 1 1 1.48269 17.2031 2.07571
643 1 1 2.42727 17.4847 3.60253
2837 1 1 18.5564 14.782 5.55591
7561 1 1 3.36343 15.6176 4.35644
1638 1 1 1.80313 16.7681 3.23017
1531 1 1 2.31343 14.0646 4.61221
154 1 1 5.60252 15.2191 0.540167
584 1 1 4.31736 13.9186 2.39942
1047 1 1 6.10553 16.446 4.98364
1178 1 1 9.91009 12.2917 0.644139
286 1 1 12.2396 12.1333 2.17269
823 1 1 9.16988 12.1966 3.68499
1170 1 1 12.1846 16.3086 36.0148
1706 1 1 14.4867 11.1966 4.21608
423 1 1 12.5347 12.9985 1.16533
22 1 1 12.447 15.3794 1.46807
2345 1 1 13.0577 16.3006 2.98888
1042 1 1 17.2274 16.1634 0.847433
6535 1 1 14.0118 14.8792 36.6232
425 1 1 16.4689 14.4407 37.386
375 1 1 16.6776 14.7154 2.58069
6905 1 1 16.1143 13.9709 36.43
1567 1 1 18.0993 14.1489 1.65048
163 1 1 1.26923 14.5832 1.61936
7811 1 1 18.2472 15.5157 2.99869
6592 1 1 17.5709 16.6996 35.0562
2367 1 1 17.8365 15.221 1.42672
7999 1 1 17.721 16.8449 0.135798
608 1 1 0.285908 15.011 3.67455
1146 1 1 1.39055 15.6635 4.2697
682 1 1 2.42612 15.2428 4.5444
1140 1 1 2.8045 17.8113 1.33698
834 1 1 4.2789 16.056 2.9962
1453 1 1 4.11548 18.4719 2.55865
7180 1 1 6.72522 16.6369 0.758116
1328 1 1 5.4461 15.8884 1.37825
7926 1 1 5.97527 15.4414 2.92423
7698 1 1 6.13034 18.5115 2.94586
141 1 1 9.4447 17.5443 5.05986
7700 1 1 8.95031 15.267 1.87479
6027 1 1 11.2985 18.1508 2.58314
1133 1 1 9.56791 16.6269 4.40703
726 1 1 12.0956 17.448 2.7345
7987 1 1 11.5825 18.0107 1.55621
1590 1 1 13.9165 15.4045 3.78766
1200 1 1 15.6755 17.7445 3.13895
7163 1 1 14.7469 16.8665 3.37061
7188 1 1 18.663 0.271276 3.0668
7968 1 1 2.64007 17.0097 2.32739
7887 1 1 1.03773 16.2039 2.28663
7581 1 1 6.8079 17.7448 0.492716
1094 1 1 2.23499 16.3308 5.13232
7119 1 1 3.25525 16.8971 3.32822
2824 1 1 4.03064 3.59648 2.70062
7503 1 1 6.64917 0.347229 1.39425
1582 1 1 9.76521 17.2509 3.37197
841 1 1 8.43801 16.8252 1.28755
814 1 1 9.89248 17.1372 1.28852
7588 1 1 10.5186 18.0134 3.35439
708 1 1 10.3813 18.3052 0.914922
7745 1 1 10.4952 18.7896 2.56703
2020 1 1 10.6401 0.35082 0.426816
421 1 1 13.8198 17.6657 4.0889
788 1 1 17.5288 18.2152 1.95144
33 1 1 16.1188 17.6141 0.303156
525 1 1 16.6503 17.4702 35.3964
7903 1 1 0.462267 2.38062 2.86034
310 1 1 0.53246 1.88741 4.05256
552 1 1 1.65017 17.2513 5.35599
915 1 1 1.62074 0.600138 2.52153
7123 1 1 5.76257 0.797685 2.6796
293 1 1 7.61392 0.767903 3.72833
1488 1 1 6.25504 17.4429 3.99239
96 1 1 8.80976 2.42087 4.15473
7535 1 1 9.63187 18.801 1.90105
1339 1 1 10.3482 0.828113 1.36971
7619 1 1 8.18841 18.0254 4.71965
239 1 1 10.996 17.4938 4.73225
7616 1 1 8.94498 17.0295 0.291042
700 1 1 13.2485 0.4554 3.03969
7478 1 1 14.4706 18.753 1.92505
6673 1 1 12.2905 18.6743 1.99738
7155 1 1 12.8107 2.46423 3.28332
1992 1 1 13.1665 17.9441 4.79215
671 1 1 10.9431 0.939378 3.32123
383 1 1 13.3361 0.739002 1.54867
1229 1 1 14.1564 2.77836 5.22488
7914 1 1 17.2957 1.25825 3.81392
7549 1 1 16.0622 3.01496 1.95522
1020 1 1 14.9642 2.27026 2.39192
558 1 1 17.1257 0.179027 2.78174
1223 1 1 16.9699 0.0530374 5.59669
727 1 1 2.94173 0.167866 4.97014
1373 1 1 1.33318 1.13009 3.996
7754 1 1 4.86316 18.763 1.26172
2126 1 1 5.6915 1.61854 1.81179
593 1 1 10.5337 2.14921 3.33851
528 1 1 11.09 4.33275 2.44071
7287 1 1 13.6392 0.476801 4.40455
180 1 1 13.4719 1.46015 3.5033
906 1 1 14.7309 0.524807 3.73468
636 1 1 15.4763 3.40094 4.30737
874 1 1 17.7331 2.79755 4.20755
6975 1 1 0.130145 4.70394 2.20204
1202 1 1 4.80915 3.42128 3.89521
2365 1 1 4.17898 2.52756 5.92853
936 1 1 3.5081 1.45319 2.15764
1376 1 1 6.31845 3.49393 2.50513
7648 1 1 8.1284 2.06396 6.48745
1378 1 1 8.59508 3.76085 3.58721
1309 1 1 8.02314 3.22572 4.39737
890 1 1 9.42256 4.32684 4.62325
1416 1 1 7.7129 3.53166 1.89919
173 1 1 10.2533 1.23971 2.59589
7250 1 1 14.3141 2.7634 3.25242
1826 1 1 12.1685 5.05632 5.07615
1336 1 1 16.911 4.2594 3.82722
7776 1 1 15.3225 5.46508 5.08281
1672 1 1 16.4407 2.6634 4.28655
148 1 1 17.2041 4.81825 2.9129
1718 1 1 0.65926 1.13802 2.93298
7122 1 1 2.25051 0.488759 3.49464
7950 1 1 16.9634 3.24028 3.48238
62 1 1 0.76501 2.47669 4.83018
580 1 1 4.90171 4.61517 3.56595
1409 1 1 4.08953 4.27326 4.82458
358 1 1 5.21349 2.20716 5.22553
440 1 1 5.15825 5.68505 3.63503
1809 1 1 7.51442 4.65908 5.22368
488 1 1 10.2285 6.28031 3.30408
1076 1 1 8.25526 4.66179 1.93142
469 1 1 10.7906 6.30688 2.41668
140 1 1 11.3063 5.3077 3.12602
2736 1 1 10.6387 3.62207 4.01932
7625 1 1 9.90783 4.34298 3.19305
1377 1 1 14.9952 7.09852 1.67811
2305 1 1 10.9075 1.78128 2.02144
958 1 1 11.6975 6.03041 7.32418
850 1 1 11.1574 3.7376 5.59488
1438 1 1 13.0566 8.20251 4.47082
1348 1 1 17.3264 2.63395 2.28673
2071 1 1 18.197 4.89975 6.1092
913 1 1 0.4186 4.1917 5.83771
481 1 1 18.5223 6.32224 4.27988
928 1 1 4.5126 4.59955 5.78165
98 1 1 1.51633 6.21885 5.44933
983 1 1 3.81932 7.84389 3.10008
114 1 1 3.97198 9.04755 3.29215
1427 1 1 5.87218 6.66434 5.38972
7718 1 1 4.99388 3.61964 1.58365
1052 1 1 7.59923 6.92098 5.89928
7138 1 1 8.22015 6.57833 2.10428
7823 1 1 7.71715 7.50978 4.99742
1051 1 1 9.02475 6.83997 2.90959
153 1 1 9.3861 6.51835 4.76676
557 1 1 10.252 7.37548 3.87964
1759 1 1 13.1979 5.20285 3.45389
1070 1 1 14.3764 5.8477 6.14506
387 1 1 12.9167 5.48277 2.43554
7273 1 1 16.7514 7.23828 2.66516
2197 1 1 14.8093 6.69686 3.12806
470 1 1 13.9122 9.94811 6.58351
1925 1 1 16.5132 8.21131 6.47992
602 1 1 15.9004 4.91578 4.42044
1939 1 1 14.967 7.27396 6.92582
7444 1 1 13.2779 9.08797 2.94557
1275 1 1 18.4004 6.59115 6.41333
144 1 1 17.0221 6.21808 3.80082
1793 1 1 0.128857 8.42546 4.95126
1709 1 1 17.5777 7.059 4.13136
959 1 1 3.1419 8.56563 3.92655
1596 1 1 2.42945 6.28209 3.24036
7395 1 1 3.3428 6.38116 6.05273
403 1 1 1.66668 7.84519 6.66427
1475 1 1 9.06713 8.40972 1.88582
1883 1 1 4.3677 5.23773 2.61804
7659 1 1 1.39324 5.28235 2.19536
45 1 1 7.68782 10.0071 5.47786
1177 1 1 5.01894 6.37761 2.86911
7701 1 1 3.61953 11.4683 5.07237
1301 1 1 6.8868 8.7665 1.81366
1008 1 1 9.81162 10.8283 5.86024
980 1 1 10.033 7.51032 5.18566
7654 1 1 11.645 5.9838 6.19976
519 1 1 10.5713 8.36309 5.49631
1478 1 1 15.9958 9.87141 2.98987
1441 1 1 14.1627 7.09427 0.931903
736 1 1 17.0143 8.95453 1.09653
1631 1 1 0.576098 6.56453 5.85215
1715 1 1 17.3429 8.57306 4.43589
628 1 1 13.9892 6.3955 6.91422
1942 1 1 0.447669 8.44499 3.10124
2239 1 1 1.34824 9.4622 4.68501
1917 1 1 3.48657 9.74245 2.38598
2084 1 1 3.38787 9.40071 6.97648
7791 1 1 4.26523 9.36836 1.59156
1003 1 1 6.21803 11.4295 5.23221
344 1 1 5.83913 10.9448 3.15197
345 1 1 8.86384 9.87979 6.11691
1001 1 1 8.14479 11.4183 4.16696
1649 1 1 9.56783 8.61983 4.92657
7461 1 1 8.35551 9.65976 4.34345
231 1 1 10.8423 6.59336 6.88717
241 1 1 9.01738 11.1409 2.53344
944 1 1 14.155 8.4638 6.11443
1422 1 1 14.3073 8.49598 2.69242
108 1 1 15.8428 8.2129 1.52324
1350 1 1 1.46345 10.3568 1.25084
6972 1 1 1.81574 10.9754 4.70237
667 1 1 1.90104 8.87091 5.37591
7603 1 1 3.62797 9.50683 4.18945
1878 1 1 4.43319 12.3026 5.46817
7805 1 1 3.98558 11.1181 2.16113
6683 1 1 8.16108 12.8288 3.85475
639 1 1 4.58887 10.1813 1.09323
478 1 1 5.38685 9.83104 4.25305
290 1 1 6.84505 10.7274 2.58878
3250 1 1 9.80301 10.2977 0.832867
1069 1 1 10.9135 7.21675 2.85881
1530 1 1 8.23351 14.2513 5.83764
1825 1 1 8.93388 13.438 4.83868
136 1 1 11.3603 12.464 7.55732
1175 1 1 12.2387 11.1566 4.14208
2062 1 1 11.1398 11.3532 3.5912
1460 1 1 11.6076 10.0751 4.2348
638 1 1 15.0427 10.0069 5.9784
1537 1 1 14.2972 8.53401 3.86617
1183 1 1 16.5016 8.13747 2.61952
1189 1 1 14.7551 11.6324 5.47162
790 1 1 18.6738 11.118 4.66844
1965 1 1 16.6302 10.6436 4.12265
877 1 1 0.443021 10.8562 2.16142
1968 1 1 2.33059 11.9253 4.95862
6563 1 1 2.20897 12.8397 3.29239
1128 1 1 5.67936 13.9257 2.24358
1445 1 1 0.566919 15.2409 2.23049
2748 1 1 3.45627 13.4475 4.92095
1486 1 1 3.49797 13.2382 2.713
365 1 1 4.90836 11.3545 3.13206
684 1 1 6.43271 14.1452 3.5341
1046 1 1 7.95702 11.0477 3.12702
1224 1 1 11.9219 11.0954 1.68958
1103 1 1 10.6498 12.7018 1.83023
1357 1 1 12.2511 11.314 5.706
1112 1 1 13.6805 10.6586 4.64782
386 1 1 13.5973 10.5873 3.49683
7858 1 1 15.8935 12.6273 3.57934
6599 1 1 15.1138 13.8258 3.07237
1107 1 1 13.4374 12.1239 2.71675
235 1 1 14.6951 7.68116 4.78019
7052 1 1 17.3951 13.4239 0.87915
7993 1 1 14.4183 13.5845 4.34541
265 1 1 15.9929 10.5867 5.43435
1005 1 1 2.76911 9.38053 1.82711
6674 1 1 1.70444 12.8911 5.96972
1276 1 1 0.472245 11.491 3.78312
724 1 1 2.49446 13.2497 5.49813
85 1 1 3.4045 14.5484 4.65996
336 1 1 0.779349 11.6671 4.84947
325 1 1 5.42807 12.8464 2.82425
1958 1 1 4.39333 12.3392 3.07721
1504 1 1 6.58491 13.493 5.69405
7464 1 1 7.4902 13.8006 3.98879
7620 1 1 10.197 16.5083 2.15283
2425 1 1 9.30014 15.914 3.07766
1545 1 1 10.2159 11.9425 3.81059
1174 1 1 11.1737 11.6254 5.34928
7550 1 1 12.173 15.6264 3.44747
7040 1 1 13.9459 14.1496 2.23819
1187 1 1 14.2747 13.1888 2.69966
389 1 1 15.0976 13.847 1.84543
2414 1 1 13.4565 14.1129 4.31149
670 1 1 18.6289 16.6806 2.48678
7515 1 1 18.023 14.6215 3.40689
6719 1 1 17.9757 9.34894 3.67004
306 1 1 1.67066 10.2816 5.66946
712 1 1 17.0227 10.7454 2.14144
2358 1 1 18.7619 14.6252 2.60053
1086 1 1 1.13103 14.73 4.37534
393 1 1 17.2445 15.6778 2.98575
1173 1 1 1.0183 14.2571 6.94634
7840 1 1 4.01568 16.8419 4.1918
971 1 1 3.30202 16.1755 5.41973
260 1 1 2.48813 12.9578 4.4159
1912 1 1 8.23341 14.4614 1.38872
1266 1 1 7.31833 18.1444 4.99859
1932 1 1 5.44528 18.1844 5.28297
7984 1 1 10.4023 12.8559 3.08187
504 1 1 7.48801 14.9768 2.71634
411 1 1 8.70832 16.1917 4.92497
468 1 1 11.0172 13.4016 6.72759
2224 1 1 12.8768 14.7563 3.39875
7855 1 1 15.7093 15.6928 1.2869
1474 1 1 15.6405 14.5734 1.27781
1916 1 1 13.6263 16.8219 0.194669
982 1 1 16.1782 18.6623 3.18454
1087 1 1 16.6468 12.8639 2.71286
1234 1 1 0.747303 13.1888 2.96059
853 1 1 18.4297 0.223259 4.52676
2776 1 1 0.816863 16.9015 3.06582
2033 1 1 17.7502 17.393 2.69606
809 1 1 18.7076 16.5526 5.4386
728 1 1 4.28755 16.988 2.57166
7957 1 1 2.9703 17.0777 4.7566
902 1 1 7.09695 15.5733 3.77899
1485 1 1 4.41699 15.6928 2.05727
937 1 1 5.04629 18.1808 3.72143
1179 1 1 5.68267 15.8107 3.76122
391 1 1 8.01184 15.8919 3.33712
394 1 1 7.85484 0.269123 4.74186
1527 1 1 4.23666 15.3999 4.93006
1500 1 1 5.25308 0.240235 4.46803
460 1 1 10.7573 17.7459 6.02067
7176 1 1 8.69934 16.8376 3.82214
256 1 1 11.2905 15.6108 2.20333
781 1 1 12.0546 16.2259 2.44838
7230 1 1 11.7256 16.9041 1.68449
818 1 1 14.4316 14.4706 3.42436
2150 1 1 15.6775 16.9211 2.1857
1167 1 1 13.1362 16.5176 6.34104
1119 1 1 13.9125 16.4483 4.31131
443 1 1 16.1338 16.3134 4.05656
1539 1 1 14.5011 18.5762 4.84054
990 1 1 14.7297 18.2118 3.83726
1149 1 1 17.497 18.2812 4.5838
1007 1 1 18.2684 17.9745 3.81426
2471 1 1 17.5881 0.602199 4.86285
397 1 1 2.59613 18.0788 5.17666
1198 1 1 18.7213 0.375011 1.03093
1514 1 1 0.47127 15.4774 4.79181
2285 1 1 5.01225 17.2253 3.45898
7197 1 1 4.91476 17.3127 6.65683
7613 1 1 6.53484 17.4994 1.4178
829 1 1 8.8546 18.03 1.38252
3576 1 1 6.43754 16.4739 2.40565
94 1 1 9.40194 2.05068 3.18548
1687 1 1 10.6382 17.0473 3.90805
885 1 1 10.541 16.2492 3.26866
2270 1 1 12.8711 18.4301 3.66355
149 1 1 14.8431 16.9274 4.51609
7911 1 1 15.3892 3.95243 0.606678
7 1 1 2.23311 2.96567 3.80383
785 1 1 18.7833 0.959873 5.85749
427 1 1 16.2934 0.982316 3.50629
1205 1 1 17.7395 0.315763 3.63826
430 1 1 18.6661 17.1929 4.30477
845 1 1 3.02461 1.78555 4.50454
105 1 1 6.09474 0.317693 5.33447
1367 1 1 4.16776 0.62821 4.22201
894 1 1 2.06859 0.311301 5.43532
1442 1 1 5.29835 1.06602 5.24777
7896 1 1 5.19669 1.19424 3.60754
1776 1 1 6.08075 18.4539 6.15903
2176 1 1 7.10446 1.35834 4.8241
209 1 1 8.86159 2.28416 5.54265
7762 1 1 6.67301 0.779725 4.1868
7997 1 1 12.7021 0.90952 3.99374
1505 1 1 11.1646 16.8756 2.60488
7989 1 1 11.4864 1.80061 2.95512
553 1 1 12.4568 2.6445 4.54554
1587 1 1 12.9128 1.7508 5.63461
946 1 1 15.3908 1.27345 3.28992
859 1 1 16.1395 1.6268 2.67338
870 1 1 13.7867 17.5266 6.26317
1999 1 1 16.5815 1.02187 4.91951
7601 1 1 17.4399 0.954666 5.77583
2681 1 1 18.1688 0.0310366 5.68091
954 1 1 1.85037 1.2387 6.48656
547 1 1 2.95585 2.37692 2.25525
1279 1 1 3.05248 2.22843 3.64628
951 1 1 5.04346 2.84565 6.52825
1355 1 1 6.17823 1.62381 5.18793
1852 1 1 7.32944 2.14626 2.48837
1181 1 1 8.26911 3.14105 7.16583
2054 1 1 7.9476 4.40378 4.30561
824 1 1 10.111 2.37972 4.89114
587 1 1 10.9353 1.67391 6.37068
3337 1 1 9.33629 3.10748 3.33928
1308 1 1 11.2587 2.00422 0.839711
1749 1 1 9.62417 0.332852 4.43571
1317 1 1 11.0563 2.74282 6.61378
1203 1 1 13.4778 3.40118 4.27276
1661 1 1 13.527 2.0647 4.41133
1755 1 1 13.2547 4.17397 7.89847
780 1 1 13.1142 2.83854 5.49493
1345 1 1 13.5442 1.01846 6.22809
7044 1 1 16.5205 4.20185 6.70825
409 1 1 13.3458 1.6727 7.12809
2323 1 1 14.372 1.31482 7.00092
151 1 1 17.2783 3.17636 0.896717
109 1 1 0.976668 3.44149 3.24861
139 1 1 2.94875 1.51787 5.6751
412 1 1 1.91954 0.237997 6.9364
7028 1 1 2.42924 3.11624 6.71356
1930 1 1 3.47851 0.504347 2.91278
848 1 1 5.72294 4.15166 5.57528
656 1 1 4.33943 2.69468 3.31818
1323 1 1 7.89139 2.20144 5.30503
1255 1 1 7.18318 18.4941 3.99453
7843 1 1 7.78215 7.52904 6.7903
2397 1 1 6.77444 5.92675 3.8012
1089 1 1 3.48889 3.14843 6.50231
492 1 1 11.754 3.5428 2.19235
7219 1 1 6.95643 3.45856 5.01076
1039 1 1 8.72226 18.0074 6.32615
2139 1 1 10.0296 2.67934 6.03152
898 1 1 8.57305 4.66521 5.34549
32 1 1 9.39612 3.99503 5.72654
1044 1 1 14.0134 2.21219 6.12812
7827 1 1 14.3204 1.34253 5.0519
591 1 1 13.7172 6.24186 2.92433
1413 1 1 15.4597 2.43814 3.55729
1395 1 1 17.5583 4.30065 6.62748
1338 1 1 16.8181 2.59132 5.33558
155 1 1 18.2152 3.46587 4.79787
6804 1 1 0.258683 5.6041 5.33263
1717 1 1 0.96034 4.83946 3.21534
1241 1 1 0.0627544 2.42113 6.46887
7661 1 1 4.48373 3.59185 5.75939
729 1 1 4.7822 5.80273 4.8506
1159 1 1 6.64406 6.46217 6.52902
1280 1 1 5.05412 8.51887 3.36686
1099 1 1 6.65545 5.47233 5.77253
454 1 1 8.23942 3.82889 6.28214
1664 1 1 11.5708 3.15903 3.22976
6463 1 1 11.7745 6.55732 2.72631
2221 1 1 12.2247 3.88307 4.84697
985 1 1 12.9853 4.33388 2.02124
7712 1 1 13.7452 7.22793 4.71887
2392 1 1 15.5625 6.99879 3.97097
2075 1 1 13.7126 5.3796 4.65324
914 1 1 16.3699 5.17631 1.52366
6443 1 1 17.2767 4.04251 4.73653
7228 1 1 17.0781 3.61033 5.97676
1538 1 1 2.9506 5.46931 6.2803
1443 1 1 1.7134 3.77684 5.65506
7651 1 1 1.45975 5.52042 6.53535
523 1 1 3.14582 3.79351 5.2189
1543 1 1 6.21927 2.96453 3.7918
1754 1 1 4.46144 6.52183 3.89826
1410 1 1 1.54561 4.36525 7.02455
1802 1 1 7.58457 8.07253 4.20478
904 1 1 6.73158 5.35095 6.79155
571 1 1 8.43687 7.84137 3.26461
177 1 1 8.25303 5.73916 4.12555
6627 1 1 10.5076 4.32925 5.03925
685 1 1 11.6044 4.06527 3.98718
1724 1 1 8.76935 7.2167 5.82464
102 1 1 15.7816 4.25024 8.07124
1519 1 1 10.6048 5.93016 7.64726
281 1 1 12.2762 5.25979 4.04132
1291 1 1 12.0756 7.95286 6.62119
908 1 1 15.7983 5.70687 6.19042
7804 1 1 14.4374 7.27007 5.76541
7352 1 1 13.5809 7.42159 8.57798
2645 1 1 18.2569 7.77196 4.95215
7308 1 1 16.5294 5.76513 5.34864
308 1 1 15.4594 6.81227 6.11062