ITEM: TIMESTEP
4700
ITEM: NUMBER OF ATOMS
8000
ITEM: BOX BOUNDS pp pp pp
0.0000000000000000e+00 1.8820720577620570e+01
0.0000000000000000e+00 1.8820720577620570e+01
0.0000000000000000e+00 3.7641441155241139e+01
ITEM: ATOMS id mass type x y z
7265 1 1 1.82476 17.2937 1.50317
2134 1 1 2.08786 17.0533 37.5234
7560 1 1 0.778252 4.25489 37.5911
6076 1 1 7.35333 18.765 0.937653
2026 1 1 5.05662 1.38677 0.910712
605 1 1 8.0021 0.575414 2.11789
6017 1 1 9.42511 0.407858 1.71559
6703 1 1 9.78811 2.10556 1.25527
6509 1 1 9.34151 16.1443 36.7133
7821 1 1 13.1699 0.28038 36.9389
382 1 1 13.9986 1.40955 36.5583
7938 1 1 14.3109 3.42088 2.44018
742 1 1 14.2636 1.71809 3.86234
1269 1 1 15.0856 2.33353 1.88938
7293 1 1 17.844 1.76661 0.815283
7690 1 1 0.530955 1.28228 0.438115
7261 1 1 2.54604 18.4855 1.6645
7604 1 1 1.58309 0.6082 0.760102
6995 1 1 3.61478 1.76875 1.66831
402 1 1 5.19967 3.64659 0.343744
816 1 1 1.66424 1.68633 0.91239
6459 1 1 3.17931 18.2316 37.4426
7585 1 1 1.87829 0.178387 2.59653
3 1 1 4.39783 3.31473 2.75876
497 1 1 7.05904 1.32607 2.67021
1168 1 1 5.65282 1.30932 2.20177
7725 1 1 10.3608 1.87939 37.1594
89 1 1 8.44422 1.0793 1.34083
7994 1 1 9.68866 0.55043 36.1369
1333 1 1 13.8859 3.47262 0.597515
1037 1 1 14.5115 2.45042 37.0723
7471 1 1 16.0748 1.3322 1.73445
1540 1 1 16.0345 3.12409 36.7766
1713 1 1 18.6648 4.0221 0.338716
6152 1 1 0.871488 4.57767 4.09474
1239 1 1 18.5796 4.5933 3.45172
7091 1 1 2.65193 3.65178 0.684703
7456 1 1 3.6952 2.44323 0.596438
802 1 1 3.19359 4.85718 0.723507
7653 1 1 4.75668 3.23636 1.24982
7300 1 1 6.39665 3.53552 4.59793
7667 1 1 5.09804 2.44767 0.217319
7919 1 1 8.90149 0.458151 35.6026
633 1 1 7.5874 1.49076 1.49553
529 1 1 11.4036 2.15168 36.0884
7010 1 1 12.7737 3.36039 1.70454
1380 1 1 14.0585 4.6617 0.388303
446 1 1 13.4488 2.55553 1.95043
434 1 1 13.4384 3.55346 36.3227
7432 1 1 16.927 6.2523 2.53632
7636 1 1 14.3459 4.79175 2.90967
2160 1 1 16.08 4.5312 1.57689
5397 1 1 0.166926 5.92233 37.4704
6199 1 1 15.6379 3.15029 0.0900753
68 1 1 0.176051 4.76861 37.0423
924 1 1 2.36523 6.65422 0.391663
1237 1 1 2.99148 4.21429 2.68106
7366 1 1 2.18779 6.27265 4.27105
72 1 1 18.4504 7.02572 2.49195
489 1 1 2.29518 3.35538 2.73945
1885 1 1 4.02335 6.96055 34.1209
568 1 1 5.53484 6.03506 1.05714
323 1 1 6.96873 4.68686 0.0515219
796 1 1 6.31478 6.75762 0.748622
1369 1 1 10.6169 6.23517 2.07131
1045 1 1 6.95823 5.77999 37.1089
6691 1 1 9.51816 3.03293 37.3388
2232 1 1 12.8742 5.81089 36.7052
502 1 1 14.1883 3.72781 35.468
7866 1 1 9.60088 7.3423 36.8704
1329 1 1 13.9117 5.64782 1.31315
1109 1 1 13.1527 5.63435 0.50084
7796 1 1 12.3431 5.12859 36.134
6828 1 1 14.4187 4.8009 35.2786
7972 1 1 16.2682 5.94484 36.9433
75 1 1 17.5558 5.53405 2.17022
2357 1 1 18.5162 8.0829 2.92919
6561 1 1 17.9668 7.72949 1.45008
7944 1 1 3.80058 6.4454 3.7949
15 1 1 4.49433 4.93912 0.766707
7322 1 1 5.36365 7.82493 1.71337
7699 1 1 5.61788 5.32096 0.182794
7663 1 1 7.35899 5.7398 1.62661
5747 1 1 7.74053 5.00214 36.8362
7924 1 1 6.99114 6.95689 2.12339
6538 1 1 9.78117 7.67469 1.11696
5690 1 1 10.743 8.73871 2.65281
378 1 1 9.66783 8.65336 2.27893
7427 1 1 11.645 4.05724 1.30853
7937 1 1 16.2826 4.5506 0.348994
5812 1 1 13.4972 7.73194 1.59158
7641 1 1 16.3481 6.04098 1.86678
107 1 1 15.8075 7.22372 36.5025
657 1 1 17.7492 6.50211 37.4666
7351 1 1 0.976639 8.8908 2.48104
7544 1 1 16.9995 7.3761 1.97858
7841 1 1 0.690102 6.10926 4.2859
1314 1 1 1.03627 7.97235 3.17938
6874 1 1 6.14101 9.81131 0.23363
626 1 1 2.78204 9.31436 1.61696
997 1 1 3.26774 6.92187 1.01883
175 1 1 2.74653 1.94159 2.90858
6987 1 1 3.32674 8.64376 37.1911
7803 1 1 5.2273 6.81599 2.25927
1850 1 1 5.59826 5.57728 35.9595
7643 1 1 7.86883 10.2366 0.971721
6477 1 1 7.16118 8.00121 0.0247596
7748 1 1 8.97638 7.31915 1.83935
6136 1 1 8.21528 7.99654 0.538289
7301 1 1 14.4118 4.2749 36.3438
181 1 1 13.3566 6.54467 37.2223
461 1 1 12.4236 8.03909 1.29295
7983 1 1 13.9434 10.5667 2.75246
230 1 1 16.8744 6.53705 0.486399
186 1 1 18.0371 6.6494 0.891577
444 1 1 18.6258 6.218 1.57874
550 1 1 15.5844 8.84593 35.3718
7795 1 1 1.38364 6.19744 3.47324
7451 1 1 18.2456 10.2103 0.87201
2320 1 1 18.0211 9.08275 1.85392
222 1 1 4.90443 7.93438 0.0995703
138 1 1 5.48291 11.6734 35.7918
331 1 1 6.26257 7.94687 0.487088
530 1 1 7.97573 8.17548 35.2058
1450 1 1 5.63043 7.39587 35.6174
7335 1 1 9.90737 8.79828 1.24734
53 1 1 9.39005 10.1346 0.577208
7891 1 1 8.80512 11.2009 0.391207
6669 1 1 11.0091 7.49053 0.864128
1790 1 1 9.00605 8.62319 0.453413
7826 1 1 16.3354 11.4956 -0.0265956
7932 1 1 12.3857 8.44833 37.0613
6997 1 1 15.8885 7.11013 37.6285
1359 1 1 14.5693 6.06133 37.6206
6705 1 1 14.8739 7.53151 36.9477
84 1 1 0.556902 10.052 0.993038
200 1 1 2.76956 11.1445 0.686276
7011 1 1 2.73271 8.96669 0.378213
7897 1 1 4.1457 10.9896 35.5983
453 1 1 8.4263 11.1066 2.24783
1512 1 1 8.05471 12.7664 35.8279
1217 1 1 7.87117 10.4912 3.71527
1906 1 1 11.8891 8.296 2.63224
6896 1 1 10.1299 9.74651 1.92752
7457 1 1 11.931 12.0743 0.776629
6699 1 1 12.3629 12.4729 1.81556
1193 1 1 13.9941 8.25613 0.765918
7512 1 1 15.5147 11.153 1.56969
7022 1 1 0.856437 10.1804 37.3404
769 1 1 17.7512 11.4733 0.427834
7397 1 1 15.7901 8.28821 36.5666
1120 1 1 17.0941 10.6643 37.4328
1036 1 1 17.581 9.77162 -0.0245822
7189 1 1 17.9496 12.6145 37.4348
7927 1 1 2.27065 11.9219 3.19693
215 1 1 6.54994 12.0269 36.1918
6578 1 1 3.6714 10.4513 0.687864
1211 1 1 5.54337 10.5312 1.60035
2373 1 1 6.59974 15.3428 0.223768
691 1 1 9.29193 11.4304 1.79799
7004 1 1 9.42388 13.5647 1.77064
255 1 1 7.50903 13.111 1.21018
993 1 1 9.44606 13.6744 37.3321
765 1 1 7.67456 9.5478 1.8028
99 1 1 10.6898 11.3159 36.029
1017 1 1 11.5641 12.1638 2.56625
6864 1 1 11.8302 12.7072 37.4842
296 1 1 13.3931 11.2328 2.0238
7452 1 1 14.7429 11.3656 37.359
7075 1 1 13.9019 13.2466 0.462407
2017 1 1 14.6512 10.653 1.93034
57 1 1 16.0907 12.9769 0.773267
973 1 1 15.8073 12.6105 1.95297
7772 1 1 18.4967 13.9908 2.72206
693 1 1 15.2796 12.883 37.6012
1116 1 1 1.49405 13.5939 2.17601
1282 1 1 1.7549 14.2045 0.547486
559 1 1 0.988551 13.2842 0.99324
203 1 1 4.51821 14.4228 0.578468
7139 1 1 5.90844 14.8149 1.12331
813 1 1 5.49801 14.8682 0.113277
863 1 1 3.89 11.4056 3.18476
17 1 1 6.2149 12.121 37.3401
8 1 1 6.56565 14.3044 0.256446
7610 1 1 7.36936 14.1099 0.739299
6590 1 1 10.6156 13.1936 3.46504
738 1 1 10.5825 12.1665 3.31041
1081 1 1 9.54852 14.2624 36.0546
7489 1 1 12.291 14.175 2.5257
6634 1 1 12.0497 10.3294 35.6967
7704 1 1 12.1618 14.706 36.9821
7635 1 1 14.059 11.7006 0.923612
7853 1 1 14.1861 15.1508 0.917983
6788 1 1 18.3112 10.612 37.489
7888 1 1 17.5334 14.445 37.4241
113 1 1 1.08802 14.1693 37.4471
1928 1 1 0.555064 15.6932 0.408595
5597 1 1 0.326741 16.5494 37.3685
1529 1 1 2.95425 13.6104 0.780755
311 1 1 2.96125 16.5008 1.24447
6321 1 1 4.19409 14.3849 1.74414
1082 1 1 2.48977 14.8427 2.84321
6379 1 1 6.53459 15.7553 1.59537
1729 1 1 5.50051 15.8096 0.327581
734 1 1 6.47769 14.611 2.50927
67 1 1 8.662 13.465 1.03094
7206 1 1 7.85315 15.5585 0.698343
660 1 1 13.0824 15.07 0.932758
586 1 1 11.8349 13.7545 36.3783
377 1 1 12.0092 14.4923 0.38602
1143 1 1 13.019 16.106 1.30256
740 1 1 13.0678 14.1084 37.286
7834 1 1 13.1975 14.2586 1.95074
6399 1 1 14.5225 13.1658 36.4745
6723 1 1 15.2696 18.582 1.20754
237 1 1 14.3864 14.3416 0.296573
465 1 1 16.7489 15.5721 0.355232
129 1 1 16.5655 16.2319 2.40696
7483 1 1 16.7577 13.6838 0.291541
1192 1 1 0.722392 17.0505 0.528258
7525 1 1 18.0173 16.8879 0.0744224
192 1 1 1.55329 16.8598 36.5308
795 1 1 3.56672 14.5407 2.7065
1446 1 1 4.62921 17.5021 0.946443
7543 1 1 8.90842 15.6659 4.10495
7767 1 1 4.57292 16.534 0.431142
749 1 1 7.50611 16.0227 1.70625
7678 1 1 7.15545 17.2089 1.45348
419 1 1 6.52587 15.54 36.6443
1064 1 1 11.0456 17.6219 34.5518
38 1 1 9.21339 14.5566 1.15015
7779 1 1 11.1458 16.9636 0.821608
7508 1 1 11.8331 17.9267 37.0639
6636 1 1 13.3462 18.8257 1.56554
1584 1 1 13.3501 15.1421 37.0645
1134 1 1 11.782 16.0882 1.43157
501 1 1 13.5333 14.0114 0.979562
3499 1 1 16.9167 0.128738 1.64219
2038 1 1 15.545 15.999 1.38282
7390 1 1 15.8184 17.216 36.4719
7787 1 1 17.4021 15.4713 1.87414
5999 1 1 18.6382 16.4619 0.71734
314 1 1 17.2353 1.44716 3.10823
1569 1 1 1.25829 17.9683 1.0578
7210 1 1 3.66378 0.835451 0.0828356
1257 1 1 6.15392 0.529668 0.313223
1895 1 1 7.91709 17.9198 0.614335
43 1 1 6.53991 18.6945 37.3054
292 1 1 6.99518 18.5675 1.8715
287 1 1 5.62144 0.419529 36.6492
55 1 1 9.19355 17.9251 3.18001
6822 1 1 7.07814 16.2843 0.0832674
496 1 1 9.58329 18.3927 0.472334
224 1 1 10.1817 18.3684 37.0314
7713 1 1 10.8609 17.7068 0.148926
343 1 1 13.3858 17.1018 1.32613
2661 1 1 13.0622 16.6603 0.125889
31 1 1 14.3282 1.06731 1.31591
7149 1 1 14.0033 16.9344 2.63536
1110 1 1 13.8785 18.0657 1.13141
1785 1 1 14.016 18.2751 2.15775
843 1 1 15.3589 16.0085 36.9704
847 1 1 0.883758 16.7106 3.04124
47 1 1 0.910392 3.08733 1.50242
7647 1 1 0.342876 0.969243 2.38862
399 1 1 4.86461 17.7488 2.499
1327 1 1 3.01549 0.0826452 2.71984
860 1 1 3.81003 18.6786 3.7762
487 1 1 4.72247 18.4847 1.21047
480 1 1 5.13973 1.24447 3.99608
450 1 1 9.33734 18.1983 1.7462
7996 1 1 8.09917 17.9392 2.82026
6851 1 1 8.40869 15.279 1.83609
1658 1 1 9.91624 0.467004 3.65459
887 1 1 12.1813 17.2151 0.413852
543 1 1 10.6977 0.458353 1.59888
1344 1 1 16.1322 18.2173 1.87909
576 1 1 0.598006 2.2604 2.4895
7930 1 1 13.7441 2.22416 0.672154
745 1 1 0.0747327 0.0840594 0.321676
328 1 1 0.483069 17.6366 37.113
762 1 1 18.8193 5.12904 1.49381
115 1 1 1.29435 1.49926 1.9574
445 1 1 3.93355 0.827506 1.19888
7284 1 1 3.21942 3.10384 2.6111
2046 1 1 4.22465 0.762562 3.2921
611 1 1 3.03538 2.86698 4.99525
6986 1 1 6.67764 2.3567 3.9463
7215 1 1 7.0157 3.03599 2.88948
566 1 1 5.91236 3.41954 1.99331
7785 1 1 9.88697 1.41042 2.0577
505 1 1 11.998 1.16831 1.81345
385 1 1 9.91342 2.32536 2.50068
1213 1 1 12.9466 1.85572 2.89834
7844 1 1 17.8463 3.73244 0.906794
1670 1 1 13.6315 4.20756 3.48724
511 1 1 16.7641 3.56827 0.996917
1634 1 1 1.53302 2.07735 2.89153
7440 1 1 18.1143 1.41652 2.44331
7669 1 1 14.9815 2.81755 0.926373
1231 1 1 0.0571072 2.30881 1.4198
966 1 1 0.264677 3.84419 1.67697
6882 1 1 4.41548 4.54133 3.21191
479 1 1 6.21285 4.25951 3.8902
318 1 1 2.85445 1.29608 1.03472
7251 1 1 4.06113 4.01593 0.169319
1331 1 1 5.99353 2.08691 3.02737
527 1 1 6.05571 4.30451 2.64446
7532 1 1 7.20544 4.19181 1.21108
6767 1 1 6.44654 5.28594 2.11914
6659 1 1 8.83257 2.00039 0.555136
2348 1 1 8.08488 4.56372 0.231883
886 1 1 8.74633 3.06778 2.76389
91 1 1 10.9679 4.13271 1.97855
1004 1 1 10.6479 3.11586 37.334
7246 1 1 15.5929 2.87819 2.65402
581 1 1 13.2167 3.47084 2.68531
1473 1 1 15.4312 5.50064 2.2662
18 1 1 16.6331 2.71395 37.4863
537 1 1 13.3501 3.93814 4.62178
6648 1 1 17.9438 3.41064 37.4727
35 1 1 15.9675 5.77887 0.717028
1265 1 1 0.350661 3.61294 3.39342
7966 1 1 1.18432 6.44286 1.55395
406 1 1 2.47727 4.05521 3.91887
835 1 1 3.83319 3.73916 1.3136
1287 1 1 2.65203 5.11432 4.53757
548 1 1 6.66769 5.46992 0.796253
5739 1 1 9.24587 3.89434 3.36275
1466 1 1 7.50275 5.86122 2.64942
661 1 1 7.69283 4.17531 3.00487
464 1 1 8.0389 4.07227 1.83382
1379 1 1 7.91625 5.99496 3.66923
7611 1 1 12.8748 6.41324 1.69738
7666 1 1 10.561 3.47471 1.19858
6541 1 1 13.2562 4.77873 1.66563
7468 1 1 14.837 5.71241 3.47311
2432 1 1 15.5354 5.97171 4.2306
6762 1 1 1.7383 5.63928 37.3681
1983 1 1 16.9979 4.81595 1.53589
651 1 1 15.7547 4.35277 2.5572
2110 1 1 17.6928 8.58633 3.23309
206 1 1 0.604294 7.34788 1.48949
1766 1 1 1.25839 4.89894 1.65463
1158 1 1 2.48389 5.24729 2.02917
7879 1 1 5.42306 4.89317 1.49486
158 1 1 3.45118 6.68843 2.59963
585 1 1 8.5214 5.0312 3.81934
623 1 1 10.5601 4.62061 1.16625
7096 1 1 9.47786 5.294 0.296398
2103 1 1 10.6691 6.76758 3.68395
934 1 1 10.0928 5.25644 2.11207
7904 1 1 9.2241 5.85806 1.61372
1833 1 1 15.3183 7.04185 2.36166
6316 1 1 13.6546 5.73302 3.75403
7758 1 1 15.7358 4.98239 4.34027
431 1 1 12.1542 7.52752 5.129
7679 1 1 17.3382 4.18782 0.0300917
34 1 1 0.787557 5.70927 0.89801
190 1 1 0.593548 5.35358 3.02422
1318 1 1 1.2252 8.1653 1.00766
1113 1 1 1.69866 9.23937 3.13092
408 1 1 4.65375 10.4013 4.09092
565 1 1 0.421843 7.21836 0.588953
7683 1 1 2.57896 7.75199 2.68827
532 1 1 7.16977 10.2105 0.165705
7921 1 1 7.50227 6.86819 1.11141
7862 1 1 6.25007 7.46288 2.9698
570 1 1 9.90487 7.53428 2.37012
7002 1 1 11.3842 10.3278 1.35329
697 1 1 8.38529 5.49799 1.14036
7422 1 1 9.56182 6.40778 2.4002
1330 1 1 11.9481 6.08814 2.51408
193 1 1 11.3359 6.43612 0.861979
1262 1 1 12.7372 5.0495 3.46454
498 1 1 15.4533 7.19981 1.01449
271 1 1 14.7414 4.50874 1.70306
1000 1 1 16.9432 7.86295 3.40175
6675 1 1 17.3275 6.54919 3.70621
6875 1 1 17.0026 8.43824 2.18191
996 1 1 2.37731 11.1392 5.5935
1105 1 1 3.42054 9.31211 4.20155
289 1 1 2.55201 10.0275 0.343978
7967 1 1 2.80568 7.82207 1.59266
7248 1 1 3.67037 10.367 6.17093
1093 1 1 3.54443 11.1327 1.46823
627 1 1 7.90613 12.2048 1.261
541 1 1 5.40526 8.90448 1.94981
2065 1 1 7.55412 9.07091 4.29342
1648 1 1 7.74892 9.07865 2.84498
7953 1 1 12.4061 8.29993 4.52892
955 1 1 10.4819 10.9062 1.80998
615 1 1 9.66143 6.75636 0.0759023
188 1 1 12.7193 7.647 2.42337
276 1 1 14.9541 8.42559 1.7177
676 1 1 14.7789 7.85993 2.78662
223 1 1 16.471 7.72489 0.932233
960 1 1 14.9992 9.54393 2.00785
1863 1 1 1.42815 10.8802 3.96115
536 1 1 0.307765 10.8097 0.541783
1870 1 1 18.1006 9.4919 2.95438
1728 1 1 2.52225 9.31932 2.58712
7845 1 1 1.58363 11.3257 2.65678
7474 1 1 0.283558 12.5001 1.33541
590 1 1 3.18099 11.27 6.25441
715 1 1 2.26288 10.554 4.55121
7326 1 1 3.35283 8.41706 2.2273
7576 1 1 7.86822 12.4538 36.9857
925 1 1 4.38912 8.28073 1.32979
970 1 1 5.03238 9.74793 2.95223
825 1 1 8.5423 9.70312 4.05311
2418 1 1 3.72958 11.2508 37.4032
7531 1 1 9.82193 9.18123 3.26206
699 1 1 10.6701 12.5568 0.719669
1784 1 1 8.91912 8.87293 5.96096
7538 1 1 11.6053 10.8975 2.68701
7536 1 1 11.3599 10.9881 0.410215
610 1 1 11.7161 11.009 3.80303
7851 1 1 14.1493 10.1822 1.11803
1533 1 1 15.6112 10.6747 2.86172
433 1 1 12.5396 11.6818 2.55917
285 1 1 13.8935 10.4328 4.85321
146 1 1 17.7362 10.7711 2.69275
7480 1 1 16.868 10.9866 5.49027
1637 1 1 1.19764 9.29657 1.47438
967 1 1 0.339176 12.2001 3.23451
7249 1 1 4.21681 11.466 2.13917
647 1 1 5.64678 11.9804 0.862342
7482 1 1 2.75137 11.746 2.15651
7376 1 1 3.96112 13.1562 3.29569
1163 1 1 6.23413 12.2772 2.86347
1417 1 1 4.58194 9.32895 4.59953
374 1 1 7.21766 8.26098 3.22967
277 1 1 9.23295 11.9145 2.82655
64 1 1 9.15285 12.1145 3.92797
1908 1 1 10.2456 14.2381 1.71124
1542 1 1 10.2085 11.4197 0.580386
7545 1 1 12.2244 12.9519 3.15288
6832 1 1 14.1116 12.2481 0.0928803
574 1 1 13.9471 12.0787 1.98137
234 1 1 16.1111 10.233 2.05982
683 1 1 15.7162 11.6255 3.32359
7867 1 1 18.5642 12.8514 2.2163
300 1 1 18.1966 9.74316 4.02563
757 1 1 2.64735 14.0665 2.11819
688 1 1 5.69379 11.5984 2.10951
8000 1 1 4.31959 12.0593 1.40062
1561 1 1 3.37637 15.3451 3.50309
7403 1 1 6.85669 14.6599 3.67591
1210 1 1 7.30577 13.8019 2.41724
815 1 1 4.89202 14.8703 3.24572
227 1 1 10.7458 15.4203 1.34632
872 1 1 10.3465 14.0693 2.93642
7990 1 1 11.6942 13.8044 3.30357
6750 1 1 14.7717 12.3047 2.95305
6824 1 1 14.7251 13.431 1.01153
6720 1 1 1.20343 14.8842 3.45374
7350 1 1 1.58029 12.6381 2.88564
7849 1 1 0.339527 16.6036 2.23299
643 1 1 2.58058 17.9217 3.64917
2837 1 1 0.247736 14.9901 4.57938
7561 1 1 3.34446 15.3139 4.57878
1638 1 1 2.70673 17.0306 3.29573
1531 1 1 2.03761 14.3744 3.92997
154 1 1 4.81987 15.7207 1.02933
584 1 1 4.42934 13.9125 2.80868
1047 1 1 6.07886 16.712 4.53237
1178 1 1 9.84816 13.2617 0.588755
286 1 1 10.9924 13.5387 1.71715
823 1 1 8.57937 12.9508 3.3073
1170 1 1 11.4175 15.8067 36.7803
1706 1 1 14.1711 11.0924 3.61158
423 1 1 12.8988 13.1811 1.6191
22 1 1 12.4377 15.2006 2.17595
2345 1 1 13.5638 15.2086 1.93378
1042 1 1 16.627 16.0985 1.22783
6535 1 1 14.0937 14.311 36.961
425 1 1 15.4482 14.1674 0.671233
375 1 1 16.6118 14.6356 2.59064
6905 1 1 15.9148 13.7139 37.4383
1567 1 1 17.7695 14.5569 2.09662
163 1 1 0.388414 14.4117 1.77873
7811 1 1 18.4728 15.4156 1.96795
6592 1 1 17.5387 17.2006 36.0457
2367 1 1 17.6412 16.4043 1.75044
7999 1 1 17.6954 15.7927 0.710355
608 1 1 0.781526 15.7564 2.43519
1146 1 1 1.62728 16.6836 3.80807
682 1 1 2.17556 15.5146 4.16237
1140 1 1 2.36584 17.9402 0.400439
834 1 1 3.73625 16.3096 3.19786
1453 1 1 4.04439 18.0592 1.91267
7180 1 1 6.45605 16.6095 0.811148
1328 1 1 5.14889 16.7053 1.45813
7926 1 1 5.50347 15.7594 2.57019
7698 1 1 6.11701 18.0535 2.72943
141 1 1 9.22922 17.4071 4.27774
7700 1 1 9.76728 15.031 1.90674
6027 1 1 9.78242 17.4877 2.41797
1133 1 1 10.4654 15.9939 3.85399
726 1 1 12.7041 17.6487 2.26515
7987 1 1 12.0695 18.2463 1.35762
1590 1 1 14.0331 15.7041 3.48841
1200 1 1 15.0547 17.9398 2.74963
7163 1 1 14.6628 16.8816 3.47876
7188 1 1 17.9223 18.6853 3.68862
7968 1 1 2.4298 17.7806 2.47861
7887 1 1 1.52832 17.4188 2.63527
7581 1 1 6.86974 17.5508 0.429226
1094 1 1 2.95801 16.3564 4.28795
7119 1 1 3.4912 17.8657 3.19341
2824 1 1 4.19448 2.44928 2.15209
7503 1 1 6.34646 0.754609 1.55295
1582 1 1 9.03668 16.7227 2.12935
841 1 1 8.0841 16.79 1.96167
814 1 1 9.92381 16.423 1.52171
7588 1 1 10.9574 0.316029 3.06431
708 1 1 10.7335 17.3141 1.70413
7745 1 1 11.3435 18.5306 1.9194
2020 1 1 9.19826 0.779664 0.760479
421 1 1 14.1952 17.6192 4.09338
788 1 1 17.2635 18.3094 2.46813
33 1 1 16.4037 17.793 0.918728
525 1 1 16.7134 17.8626 35.8551
7903 1 1 18.5359 1.23136 3.35606
310 1 1 18.5485 1.92334 4.39246
552 1 1 1.3718 17.7811 3.67076
915 1 1 2.11295 0.228453 3.88724
7123 1 1 6.3905 0.134302 3.14552
293 1 1 6.99435 0.827274 3.86259
1488 1 1 5.87897 18.0625 3.92327
96 1 1 8.30831 2.4257 3.61335
7535 1 1 8.79708 18.6973 2.50936
1339 1 1 10.3445 18.3922 2.42687
7619 1 1 8.29274 17.7429 3.76494
239 1 1 10.0534 17.5384 5.24621
7616 1 1 9.00031 17.1677 1.20064
700 1 1 12.7151 0.217469 3.45985
7478 1 1 14.9275 0.0696075 2.22706
6673 1 1 13.0579 18.5864 2.64322
7155 1 1 12.3683 2.10663 4.04909
1992 1 1 13.9788 18.6287 4.92595
671 1 1 12.1567 0.812292 2.9391
383 1 1 13.1108 1.0282 2.229
1229 1 1 15.0267 2.42184 5.11729
7914 1 1 17.4905 2.00902 4.18331
7549 1 1 16.6077 2.16109 2.16152
1020 1 1 15.0113 2.28566 2.92694
558 1 1 17.4472 0.825765 3.86992
1223 1 1 16.4356 18.2609 5.38384
727 1 1 3.12209 1.04918 4.26043
1373 1 1 1.1054 1.62096 4.31695
7754 1 1 3.59399 18.7603 0.555779
2126 1 1 6.42612 2.2525 2.02943
593 1 1 9.99548 1.81407 3.44652
528 1 1 10.62 3.36181 2.98201
7287 1 1 13.9444 18.6761 3.91538
180 1 1 12.18 1.01538 3.88166
906 1 1 14.708 0.743291 4.03926
636 1 1 14.7313 3.31943 3.94495
874 1 1 17.0807 2.6146 3.31134
6975 1 1 0.826872 4.34508 2.54061
1202 1 1 4.00468 4.00991 4.92078
2365 1 1 4.02093 3.03885 5.56235
936 1 1 3.3223 0.74982 1.96365
1376 1 1 5.57946 3.35295 4.02572
7648 1 1 8.07432 2.26374 5.76173
1378 1 1 8.08392 3.43765 3.79454
1309 1 1 7.05223 3.53725 3.80412
890 1 1 9.5271 4.88226 4.59625
1416 1 1 7.386 2.94343 1.56373
173 1 1 10.7831 1.29983 2.97
7250 1 1 13.7825 2.53529 3.10616
1826 1 1 12.4 4.57951 5.10018
1336 1 1 15.9426 3.61432 4.10541
7776 1 1 14.5317 5.37194 4.33876
1672 1 1 16.322 2.61075 4.81696
148 1 1 17.9496 4.40374 2.55514
1718 1 1 0.332305 0.20751 3.48415
7122 1 1 2.37833 2.00327 3.84257
7950 1 1 17.4301 4.44537 3.42954
62 1 1 1.99981 2.62774 5.0916
580 1 1 5.3936 4.97763 3.49373
1409 1 1 3.52978 4.38517 3.73674
358 1 1 5.3279 3.38073 5.29969
440 1 1 6.14125 5.30755 3.95772
1809 1 1 7.32699 5.41083 5.1354
488 1 1 9.7905 6.67712 3.51707
1076 1 1 8.1675 4.94486 2.50022
469 1 1 9.94211 5.63848 3.12965
140 1 1 11.4492 5.13812 3.16461
2736 1 1 10.9382 4.17095 4.50163
7625 1 1 9.63434 4.21196 1.87482
1377 1 1 13.8818 6.15784 2.22748
2305 1 1 11.2324 2.17617 1.96814
958 1 1 12.4664 6.70048 5.83289
850 1 1 11.4602 4.48111 5.48123
1438 1 1 13.9301 7.28223 4.32544
1348 1 1 16.3155 3.66985 3.18187
2071 1 1 18.3482 5.09386 6.62494
913 1 1 0.988806 4.18844 5.41627
481 1 1 18.5546 5.55785 4.25433
928 1 1 4.49086 4.79478 5.92405
98 1 1 1.40996 6.14571 5.14721
983 1 1 3.63687 7.66344 3.32996
114 1 1 4.10787 9.11959 3.19578
1427 1 1 5.30277 7.67458 3.79265
7718 1 1 4.55207 4.19401 1.94104
1052 1 1 7.83515 6.42943 5.21197
7138 1 1 8.68431 6.85909 2.90791
7823 1 1 7.38192 7.12665 4.56855
1051 1 1 8.75899 7.98383 2.63644
153 1 1 9.91183 5.76318 4.17013
557 1 1 9.45771 7.50432 4.69543
1759 1 1 12.8199 5.45218 2.32319
1070 1 1 14.5604 5.39784 5.68818
387 1 1 12.0219 4.37145 2.28957
7273 1 1 16.1586 7.79179 2.16949
2197 1 1 13.7538 7.37821 2.45227
470 1 1 13.576 8.83488 5.98992
1925 1 1 16.3481 8.19534 6.17589
602 1 1 17.5431 5.69099 4.42407
1939 1 1 15.7937 7.31084 6.45297
7444 1 1 13.6916 8.16109 3.32074
1275 1 1 18.0201 7.61826 5.1471
144 1 1 15.9004 5.87908 3.04075
1793 1 1 18.5337 8.35814 3.87972
1709 1 1 17.3265 6.83792 4.76293
959 1 1 3.01593 8.49 3.52509
1596 1 1 2.33921 6.65295 1.85185
7395 1 1 2.53337 6.45267 5.41739
403 1 1 1.09152 7.93772 6.13953
1475 1 1 8.29142 8.51318 1.96387
1883 1 1 4.44425 5.18969 2.22942
7659 1 1 2.21233 6.80172 2.89375
45 1 1 7.89685 10.651 5.00699
1177 1 1 5.63413 5.80569 2.9421
7701 1 1 4.09129 10.0611 5.05006
1301 1 1 7.06242 8.65837 1.04169
1008 1 1 9.92946 11.7618 4.44852
980 1 1 9.83505 6.56644 5.06752
7654 1 1 11.7912 6.5733 4.4923
519 1 1 10.1446 8.83923 5.53682
1478 1 1 15.8433 9.45516 3.04488
1441 1 1 13.7586 6.73184 1.32674
736 1 1 17.1462 9.00253 1.2275
1631 1 1 18.4203 6.25771 5.05159
1715 1 1 18.0127 7.27911 4.04757
628 1 1 14.6925 7.24233 6.54347
1942 1 1 0.389014 7.07412 3.4923
2239 1 1 1.24641 8.83032 4.23904
1917 1 1 3.5438 9.95253 2.24044
2084 1 1 2.80848 9.72754 6.74715
7791 1 1 4.45073 9.35375 1.48752
1003 1 1 4.34642 11.4169 5.80866
344 1 1 5.87291 10.4774 3.14375
345 1 1 8.81644 9.86984 5.19046
1001 1 1 8.23321 12.0465 5.12707
1649 1 1 9.35856 9.15851 4.82996
7461 1 1 8.75781 8.99052 2.80743
231 1 1 11.3379 6.86528 5.43253
241 1 1 9.39461 10.3399 2.72629
944 1 1 14.2841 7.33595 5.49346
1422 1 1 15.8182 8.21729 3.18013
108 1 1 15.5522 9.07021 1.08182
1350 1 1 0.410863 9.32792 3.21254
6972 1 1 0.941007 11.5526 4.60441
667 1 1 1.99686 9.15003 5.0722
7603 1 1 2.35044 9.0088 4.1182
1878 1 1 3.27931 11.8069 4.7075
7805 1 1 3.82133 10.3736 3.06546
6683 1 1 7.0863 12.4632 3.3033
639 1 1 4.49192 10.2879 1.82373
478 1 1 6.53438 9.89223 4.00401
290 1 1 6.71798 9.70526 2.55797
3250 1 1 8.87804 9.59288 1.37261
1069 1 1 9.8373 8.03085 3.46056
1530 1 1 8.67552 13.5735 4.46719
1825 1 1 9.12008 12.501 4.99648
136 1 1 11.275 11.8178 7.23495
1175 1 1 12.1182 11.6688 4.83869
2062 1 1 10.8432 10.7242 3.60518
1460 1 1 12.6764 9.92818 4.02227
638 1 1 15.2099 10.2932 4.97506
1537 1 1 13.6679 9.41899 3.64119
1183 1 1 16.081 9.20185 1.92438
1189 1 1 14.653 9.87584 3.44723
790 1 1 18.5565 10.0436 5.25056
1965 1 1 17.323 12.0931 4.63588
877 1 1 0.518607 10.8225 3.03522
1968 1 1 2.11976 11.8315 4.46679
6563 1 1 2.68577 12.7039 2.65691
1128 1 1 5.41648 14.7455 2.2537
1445 1 1 0.760492 15.5089 1.37667
2748 1 1 3.42933 13.6834 4.58179
1486 1 1 3.76888 13.2397 2.02072
365 1 1 4.91565 10.7598 3.11532
684 1 1 6.34642 13.7333 3.21848
1046 1 1 9.05333 10.8176 3.67341
1224 1 1 11.6107 11.5255 1.53003
1103 1 1 10.3085 12.5891 1.75288
1357 1 1 11.6657 10.9654 5.49916
1112 1 1 13.0388 10.9884 4.22691
386 1 1 13.1061 11.0479 3.17376
7858 1 1 15.4643 12.7421 3.93544
6599 1 1 14.778 13.431 3.3439
1107 1 1 13.4408 12.118 2.97747
235 1 1 14.4288 8.84537 3.55815
7052 1 1 17.172 13.0715 1.04098
7993 1 1 14.4789 12.8844 5.29487
265 1 1 15.6946 11.3306 5.10123
1005 1 1 1.83762 11.5046 1.16746
6674 1 1 1.86215 12.5673 5.2986
1276 1 1 18.2109 11.2692 4.8599
724 1 1 2.00479 13.7028 5.31697
85 1 1 3.06161 14.4182 3.65675
336 1 1 1.44066 12.4748 4.20912
325 1 1 5.40624 13.8842 3.48552
1958 1 1 4.67374 12.2563 2.9217
1504 1 1 6.31939 13.6026 5.89434
7464 1 1 7.67084 13.9174 3.74862
7620 1 1 10.4335 16.5173 2.32055
2425 1 1 8.93931 15.7995 2.6804
1545 1 1 10.1581 11.363 2.82072
1174 1 1 11.0723 11.8905 4.40034
7550 1 1 13.3496 15.9214 2.82345
7040 1 1 14.2852 13.9968 1.89138
1187 1 1 13.5915 13.5916 2.81166
389 1 1 16.1316 13.5579 3.04388
2414 1 1 13.9422 14.1973 4.30618
670 1 1 17.3911 15.5855 2.82158
7515 1 1 17.2928 14.0508 4.53473
6719 1 1 16.9984 9.73579 3.05032
306 1 1 1.0906 10.1276 4.68372
712 1 1 16.6215 12.2168 3.06299
2358 1 1 18.4308 14.3935 3.88521
1086 1 1 0.800382 15.736 3.91396
393 1 1 18.6495 15.275 3.14701
1173 1 1 1.38817 14.6609 6.97685
7840 1 1 4.85493 16.653 4.65336
971 1 1 3.74399 16.5018 4.95701
260 1 1 2.18257 12.922 3.72329
1912 1 1 7.2492 14.8351 1.65203
1266 1 1 7.23836 17.0791 4.25898
1932 1 1 5.36685 17.8255 4.89201
7984 1 1 9.61249 13.6348 3.39409
504 1 1 7.36204 15.3078 2.67671
411 1 1 8.60177 15.8151 5.09101
468 1 1 11.2164 13.9794 6.93248
2224 1 1 13.1268 14.9512 2.89933
7855 1 1 15.5347 15.9537 2.67931
1474 1 1 16.3212 14.6381 1.47898
1916 1 1 14.4368 16.2341 37.4022
982 1 1 16.1019 17.2821 2.90084
1087 1 1 16.8583 12.8845 2.21317
1234 1 1 18.4676 13.016 3.41591
853 1 1 0.405507 18.0599 3.90319
2776 1 1 17.9097 16.4185 3.61752
2033 1 1 18.2352 17.8599 2.29348
809 1 1 0.0595623 16.5284 5.43732
728 1 1 3.45698 17.0978 2.3116
7957 1 1 3.98341 17.5542 4.77614
902 1 1 6.53574 15.7798 3.38637
1485 1 1 4.45846 15.4914 2.57713
937 1 1 4.98304 17.4002 3.94167
1179 1 1 5.08255 15.4907 5.00025
391 1 1 7.98257 16.2769 2.96151
394 1 1 7.8273 18.0936 4.76139
1527 1 1 3.86677 15.1822 5.46983
1500 1 1 5.6643 0.261385 4.13298
460 1 1 10.3114 16.7712 6.36909
7176 1 1 8.81922 16.9768 3.38099
256 1 1 11.2581 14.932 3.46024
781 1 1 12.365 16.4615 3.49107
7230 1 1 12.4808 16.3049 2.33462
818 1 1 14.074 14.5277 3.28643
2150 1 1 14.9771 16.8801 2.38769
1167 1 1 12.9316 18.034 4.49269
1119 1 1 13.4142 16.94 3.48566
443 1 1 16.5634 16.4132 3.45422
1539 1 1 15.0057 18.3799 4.67564
990 1 1 15.4706 18.2517 3.78651
1149 1 1 18.3609 17.4103 4.14033
1007 1 1 16.6764 17.9051 3.83887
2471 1 1 18.4126 0.66999 4.3699
397 1 1 2.15313 18.261 5.2015
1198 1 1 0.765615 0.795125 1.33193
1514 1 1 1.3916 16.0534 4.89779
2285 1 1 5.71262 17.169 3.09732
7197 1 1 5.10479 17.2192 6.19171
7613 1 1 6.21893 17.2544 1.97533
829 1 1 8.27399 18.2077 1.7204
3576 1 1 6.90468 16.637 2.30301
94 1 1 8.93855 0.748841 3.26735
1687 1 1 9.90431 16.8572 3.40325
885 1 1 11.2514 16.0307 2.87001
2270 1 1 13.621 17.8765 3.11101
149 1 1 15.0127 17.1033 4.61496
7911 1 1 16.0459 2.89387 1.41918
7 1 1 0.684803 2.23335 3.50398
785 1 1 0.425651 0.259395 5.86724
427 1 1 16.4872 18.8464 3.52796
1205 1 1 17.0811 18.5509 4.57536
430 1 1 1.54381 17.0186 5.46811
845 1 1 3.49093 1.98665 4.53422
105 1 1 5.80252 0.216281 5.27351
1367 1 1 3.89154 0.530176 4.71999
894 1 1 3.02502 0.280224 5.34396
1442 1 1 5.05131 1.10629 5.52256
7896 1 1 6.14795 1.09947 4.39922
1776 1 1 5.54469 18.1284 5.90741
2176 1 1 7.15581 1.15635 4.83792
209 1 1 9.0943 1.9462 5.33863
7762 1 1 6.57711 18.7367 4.63643
7997 1 1 11.5704 0.255201 5.0688
1505 1 1 11.6676 17.0014 2.04907
7989 1 1 11.553 1.95018 3.16238
553 1 1 12.5405 3.12013 4.61553
1587 1 1 13.0817 0.575468 4.53634
946 1 1 15.8014 1.41284 3.4448
859 1 1 15.1876 1.35052 2.58816
870 1 1 14.1631 0.324851 6.43366
1999 1 1 15.9946 1.03422 4.46136
7601 1 1 18.0773 1.16443 5.23366
2681 1 1 17.9674 18.5952 5.20249
954 1 1 1.83026 1.27528 4.97087
547 1 1 3.40403 2.58934 3.57399
1279 1 1 3.85055 3.25361 4.3267
951 1 1 4.92146 2.74937 6.3705
1355 1 1 5.96738 2.18093 4.62355
1852 1 1 7.95644 2.41833 2.58033
1181 1 1 8.51557 3.52527 6.54173
2054 1 1 8.60561 4.11866 4.39376
824 1 1 9.40897 1.16675 4.3569
587 1 1 10.1246 2.18286 6.34822
3337 1 1 9.42717 2.54909 3.50664
1308 1 1 11.8942 2.88295 2.40242
1749 1 1 10.1809 17.9395 3.82766
1317 1 1 11.3574 3.20626 6.82124
1203 1 1 13.5559 2.7116 4.29237
1661 1 1 14.0805 1.82948 4.87709
1755 1 1 13.8855 3.85464 8.03746
780 1 1 13.8842 3.16233 5.2504
1345 1 1 13.447 1.46701 5.66816
7044 1 1 16.084 4.02454 7.78892
409 1 1 14.5278 0.443824 7.7262
2323 1 1 14.8779 1.5501 5.71159
151 1 1 17.3753 3.3084 2.26009
109 1 1 1.18639 3.23594 2.60328
139 1 1 2.65667 1.52368 5.4102
412 1 1 2.04562 1.47716 7.17957
7028 1 1 2.87212 3.5543 6.42297
1930 1 1 4.40527 0.300413 1.92823
848 1 1 6.0116 4.75418 5.73004
656 1 1 4.52971 2.23828 3.85198
1323 1 1 8.17027 2.65945 4.56042
1255 1 1 7.62561 0.0851777 3.17875
7843 1 1 6.8189 7.51665 6.09152
2397 1 1 7.13111 4.73649 3.84666
1089 1 1 4.02181 3.48612 6.91209
492 1 1 11.7705 3.74979 3.26932
7219 1 1 6.83275 4.16182 5.25638
1039 1 1 9.64727 18.6194 5.01507
2139 1 1 11.053 3.49081 5.72777
898 1 1 9.05694 4.13775 5.33578
32 1 1 10.323 4.09477 5.26504
1044 1 1 14.029 2.30757 6.00352
7827 1 1 14.3557 0.778971 5.18557
591 1 1 13.0675 6.63812 2.60634
1413 1 1 15.3436 2.0854 4.21605
1395 1 1 17.9849 3.67627 6.13348
1338 1 1 16.2811 2.81015 5.85393
155 1 1 18.7235 4.11615 4.58502
6804 1 1 18.4343 4.82615 5.34589
1717 1 1 1.65957 3.84592 3.52936
1241 1 1 18.6554 2.09506 6.03731
7661 1 1 4.6605 3.74266 6.06536
729 1 1 5.14011 5.17353 4.48948
1159 1 1 6.88213 6.44819 5.95729
1280 1 1 5.78158 9.07613 3.90698
1099 1 1 5.64924 5.91736 5.27776
454 1 1 7.64901 4.12851 6.40701
1664 1 1 9.8364 3.37957 4.06226
6463 1 1 12.5232 6.22109 3.49102
2221 1 1 12.0243 4.03721 4.13964
985 1 1 12.7458 2.86067 3.36256
7712 1 1 13.0189 6.43604 4.72203
2392 1 1 15.7457 7.20555 4.16122
2075 1 1 13.6244 5.02511 4.93116
914 1 1 16.8824 5.04485 2.7793
6443 1 1 17.8676 3.22402 3.65802
7228 1 1 17.0678 3.35842 4.75874
1538 1 1 2.62729 5.97521 6.43479
1443 1 1 2.64742 3.736 5.36402
7651 1 1 1.83256 5.37515 5.96271
523 1 1 2.86318 5.40565 5.58102
1543 1 1 5.74888 4.32822 4.81845
1754 1 1 3.83319 7.57923 4.46795
1410 1 1 1.44699 5.50961 6.90312
1802 1 1 6.50118 7.22211 3.84362
904 1 1 7.20618 5.83983 7.01095
571 1 1 8.69217 7.31966 3.98668
177 1 1 8.71257 5.86371 4.78081
6627 1 1 10.0085 5.16731 5.54838
685 1 1 11.2975 5.16278 4.71857
1724 1 1 8.67192 6.88513 5.47233
102 1 1 15.0462 4.77386 7.34979
1519 1 1 11.3916 5.84563 7.52012
281 1 1 12.1717 5.41503 4.38594
1291 1 1 13.4278 8.02107 6.52358
908 1 1 15.4279 5.7298 6.45392
7804 1 1 13.4063 6.99428 5.45274
7352 1 1 14.6623 7.43152 7.65789
2645 1 1 17.1038 8.06507 5.01899
7308 1 1 16.3693 5.60279 6.03823