ITEM: TIMESTEP
4100
ITEM: NUMBER OF ATOMS
8000
ITEM: BOX BOUNDS pp pp pp
0.0000000000000000e+00 1.8820720577620570e+01
0.0000000000000000e+00 1.8820720577620570e+01
0.0000000000000000e+00 3.7641441155241139e+01
ITEM: ATOMS id mass type x y z
7265 1 1 1.12376 0.221279 0.974396
2134 1 1 1.86968 0.669632 37.0559
7560 1 1 0.710189 1.53306 0.614773
6076 1 1 5.43765 0.469941 37.256
2026 1 1 5.3285 0.24331 0.895192
605 1 1 6.68271 0.323892 0.739743
6017 1 1 9.01298 0.303631 0.577698
6703 1 1 9.36337 1.23654 0.845878
6509 1 1 10.2424 0.662008 0.321864
7821 1 1 12.9081 0.428257 37.4579
382 1 1 14.2078 0.980199 37.4739
7938 1 1 13.5931 0.410128 1.40111
742 1 1 13.2007 1.7101 1.98643
1269 1 1 15.098 0.432716 1.09745
7293 1 1 17.5378 1.02266 0.631045
7690 1 1 1.20803 2.12364 1.51927
7261 1 1 1.80753 1.01935 1.22221
7604 1 1 2.26047 2.34725 0.602066
6995 1 1 2.32164 2.53592 1.72915
402 1 1 4.21484 2.74037 1.24493
816 1 1 3.12322 1.73821 0.63647
6459 1 1 4.38478 2.26964 37.5043
7585 1 1 4.48872 1.62093 0.795816
3 1 1 5.44823 2.42529 1.1037
497 1 1 6.99497 1.3577 0.413152
1168 1 1 6.15525 1.31438 0.999398
7725 1 1 7.5521 3.263 0.891531
89 1 1 8.97965 2.33451 1.10423
7994 1 1 10.0093 1.68527 0.0145782
1333 1 1 11.6667 2.66584 37.6026
1037 1 1 14.755 2.48203 1.14521
7471 1 1 14.5226 1.35578 0.867889
1540 1 1 17.3799 2.29519 0.486323
1713 1 1 0.385312 3.37521 0.489504
6152 1 1 2.46269 4.1234 1.45497
1239 1 1 1.68283 3.24884 0.856697
7091 1 1 2.69187 3.17951 0.309736
7456 1 1 3.27879 3.36795 1.59105
802 1 1 5.04163 4.45516 0.596332
7653 1 1 5.40405 3.43642 1.40991
7300 1 1 6.80923 4.02762 1.69786
7667 1 1 6.41434 3.86191 0.519545
7919 1 1 9.37468 2.87132 0.0836181
633 1 1 8.41872 3.84345 0.359398
529 1 1 10.4045 2.575 1.06656
7010 1 1 10.8635 3.62794 1.15686
1380 1 1 11.8962 4.39939 0.71138
446 1 1 13.2345 2.5271 1.16063
434 1 1 13.6721 3.0593 37.4158
7432 1 1 15.1065 3.50034 1.04202
7636 1 1 14.5232 3.84573 37.5062
2160 1 1 15.7017 2.75282 0.780262
5397 1 1 16.4232 4.7195 37.2445
6199 1 1 16.7566 3.39576 0.785687
68 1 1 0.260773 4.15655 1.03912
924 1 1 1.09033 5.15895 1.10835
1237 1 1 1.3778 4.36214 1.87283
7366 1 1 1.21463 5.76376 2.00852
72 1 1 1.1364 4.63861 37.3728
489 1 1 2.00668 5.06651 0.474318
1885 1 1 3.07409 4.72677 0.0994342
568 1 1 6.21451 4.89033 0.436739
323 1 1 7.64969 4.34825 1.03565
796 1 1 7.302 5.60187 0.104558
1369 1 1 9.58339 5.35114 0.878382
1045 1 1 9.3388 6.49809 0.533132
6691 1 1 10.6496 4.85978 0.395977
2232 1 1 13.2766 4.78134 1.2065
502 1 1 12.6175 4.85156 0.123939
7866 1 1 11.0649 5.79815 37.4079
1329 1 1 14.2202 5.42527 1.01115
1109 1 1 14.0845 4.25009 0.648168
7796 1 1 13.6113 5.66148 37.3245
6828 1 1 14.4905 4.93936 37.6246
7972 1 1 16.7887 5.49125 0.209999
75 1 1 17.2728 4.23771 1.655
2357 1 1 16.7014 4.46927 0.808991
6561 1 1 18.0227 5.95211 0.379169
7944 1 1 3.82539 6.86225 1.53881
15 1 1 5.83912 5.76265 0.78047
7322 1 1 6.07812 6.79816 1.2771
7699 1 1 4.72144 6.13134 0.722753
7663 1 1 7.86923 6.22033 0.951375
5747 1 1 8.22889 5.73114 0.0521854
7924 1 1 8.20512 7.00819 1.54786
6538 1 1 9.25609 7.20346 1.44418
5690 1 1 10.1121 7.76016 0.855565
378 1 1 10.5804 6.67727 0.231167
7427 1 1 12.1498 5.89538 0.215308
7937 1 1 13.6028 6.73793 0.761786
5812 1 1 13.8104 6.62592 37.2121
7641 1 1 14.7033 6.68832 1.17354
107 1 1 14.8085 7.46433 0.404797
657 1 1 16.1622 6.6483 0.0371723
7351 1 1 17.8229 6.79211 1.02565
7544 1 1 16.0664 7.25163 0.961
7841 1 1 1.33253 6.67958 1.15508
1314 1 1 1.53944 8.75044 1.57731
6874 1 1 2.75552 7.55449 0.713761
626 1 1 2.11338 8.23343 0.446878
997 1 1 4.21587 8.27608 0.44298
175 1 1 4.29593 7.84583 1.76174
6987 1 1 4.70627 7.07512 1.22855
7803 1 1 6.67394 7.10379 0.313717
1850 1 1 6.41528 8.18376 0.35349
7643 1 1 8.39283 8.39901 36.9831
6477 1 1 7.35825 8.71965 0.415843
7748 1 1 8.0922 7.85904 0.716241
6136 1 1 9.22353 7.45699 0.290154
7301 1 1 12.7702 7.26233 1.69086
181 1 1 12.4875 8.3858 0.517261
461 1 1 13.7671 7.90765 0.993636
7983 1 1 13.4231 9.08397 0.693518
230 1 1 16.2661 8.06503 1.58987
186 1 1 18.0853 7.85339 1.00726
444 1 1 0.054121 7.2991 0.497521
550 1 1 16.7748 7.91185 36.9544
7795 1 1 0.724579 8.33841 0.652663
7451 1 1 0.480388 9.9211 0.22751
2320 1 1 0.71131 9.43223 1.42285
222 1 1 3.98234 9.48603 0.547615
138 1 1 3.72164 9.80328 1.63365
331 1 1 5.36409 8.532 1.08443
530 1 1 6.6255 9.29435 0.567015
1450 1 1 7.6827 9.6416 0.28081
7335 1 1 8.29491 8.84568 0.981559
53 1 1 9.2728 9.40544 1.51243
7891 1 1 9.13896 10.2279 0.592957
6669 1 1 11.0117 9.76971 37.2867
1790 1 1 9.89073 9.1935 0.404578
7826 1 1 12.6245 10.0245 0.820901
7932 1 1 11.9057 9.35215 0.0921865
6997 1 1 14.3536 10.0527 1.35389
1359 1 1 14.3434 9.0835 1.09223
6705 1 1 15.9304 9.68754 37.3827
84 1 1 0.128364 10.6985 0.868949
200 1 1 1.20297 10.7138 1.14973
7011 1 1 2.79406 10.2993 0.569199
7897 1 1 3.45687 10.1745 37.3876
453 1 1 5.83504 12.1095 1.00124
1512 1 1 6.80234 10.608 0.130396
1217 1 1 7.11118 10.1977 1.15317
1906 1 1 11.3766 11.2177 1.59259
6896 1 1 10.4219 10.0344 0.71795
7457 1 1 11.4627 11.0286 0.508664
6699 1 1 13.6594 11.0756 1.43928
1193 1 1 15.1427 10.2461 0.151346
7512 1 1 15.0481 10.7773 1.56453
7022 1 1 16.7818 10.4433 0.823662
769 1 1 15.9888 11.0554 1.27144
7397 1 1 15.8984 9.85431 0.848689
1120 1 1 17.6828 11.0709 0.446672
1036 1 1 18.2084 10.0165 0.56926
7189 1 1 18.5343 11.4909 37.6216
7927 1 1 1.12353 11.8497 1.34354
215 1 1 3.87259 12.5872 0.191008
6578 1 1 3.15008 12.0338 0.981739
1211 1 1 4.37414 11.9152 0.995082
2373 1 1 6.9669 12.365 0.342319
691 1 1 7.45884 11.7702 1.37793
7004 1 1 7.9851 13.2174 1.40686
255 1 1 7.99978 12.3374 0.417768
993 1 1 8.91561 12.2836 0.799959
765 1 1 8.12349 10.7143 0.355127
99 1 1 9.68092 11.9683 36.9539
1017 1 1 10.2386 12.4149 1.25327
6864 1 1 9.77568 12.2875 0.206329
296 1 1 12.3231 12.5733 37.6018
7452 1 1 14.1598 11.9898 0.377339
7075 1 1 13.8841 12.8968 1.45775
2017 1 1 12.9717 12.1422 1.1211
57 1 1 14.3786 13.0867 0.48756
973 1 1 15.1333 12.4461 0.911806
7772 1 1 17.2963 12.6239 1.31538
693 1 1 16.2517 12.2322 0.499661
1116 1 1 0.0742697 13.3186 1.35433
1282 1 1 2.08433 13.4985 1.20046
559 1 1 1.09679 12.913 1.05626
203 1 1 4.11626 14.4664 0.854519
7139 1 1 4.61126 13.876 1.51897
813 1 1 5.61686 14.3548 0.586399
863 1 1 6.16106 13.2107 1.55111
17 1 1 4.92338 12.8272 0.792888
8 1 1 6.8358 13.8254 0.742176
7610 1 1 7.46499 13.1698 0.0119744
6590 1 1 8.86485 13.7829 1.30981
738 1 1 9.91515 14.2691 0.855501
1081 1 1 9.25283 13.5795 0.485232
7489 1 1 11.1713 13.949 1.95625
6634 1 1 11.6734 12.5106 0.845373
7704 1 1 12.6285 13.1997 0.764709
7635 1 1 14.6901 13.4642 1.58251
7853 1 1 15.5676 14.0808 1.03475
6788 1 1 16.8686 13.0939 0.396474
7888 1 1 0.225103 14.5623 0.783374
113 1 1 18.8216 13.4775 36.8845
1928 1 1 17.7319 13.7884 1.37775
5597 1 1 0.87182 15.6519 0.631699
1529 1 1 1.48884 14.703 1.66647
311 1 1 1.79178 15.7547 1.28796
6321 1 1 2.63294 14.7616 0.734735
1082 1 1 4.14218 15.6075 0.812243
6379 1 1 5.26932 14.8917 1.57214
1729 1 1 5.16142 15.4667 0.508929
734 1 1 6.38186 14.2331 1.76075
67 1 1 7.90863 14.384 1.61102
7206 1 1 7.11183 16.8721 37.5613
660 1 1 9.04491 14.9615 0.757909
586 1 1 9.14178 15.8857 0.119549
377 1 1 10.7374 16.8214 0.246491
1143 1 1 12.5615 15.62 1.40307
740 1 1 13.0324 14.6954 0.73588
7834 1 1 13.9933 15.0212 0.0669336
6399 1 1 15.0323 14.2691 36.9833
6723 1 1 15.4914 15.5293 0.816321
237 1 1 16.1656 14.4949 0.318373
465 1 1 16.535 15.7679 0.254923
129 1 1 17.3289 14.759 2.14542
7483 1 1 17.3425 15.0058 0.660233
1192 1 1 0.16644 16.3204 0.160912
7525 1 1 1.0846 16.7136 1.06875
192 1 1 18.8077 17.3288 0.996109
795 1 1 3.54155 16.3991 0.594326
1446 1 1 4.68897 17.456 0.160368
7543 1 1 6.18102 15.7375 1.30342
7767 1 1 6.26203 17.0131 36.7688
749 1 1 8.32928 15.7345 1.07551
7678 1 1 7.41039 16.5627 1.16341
419 1 1 7.86307 15.7385 37.5056
1064 1 1 9.53555 16.6827 37.1558
38 1 1 9.1978 16.8129 1.49249
7779 1 1 11.938 16.37 0.932307
7508 1 1 11.7507 17.4439 0.213504
6636 1 1 12.8628 17.6592 0.351295
1584 1 1 12.6976 16.6893 0.31104
1134 1 1 12.2124 17.828 1.37018
501 1 1 13.3159 15.7555 0.71639
3499 1 1 14.4389 17.5975 1.8399
2038 1 1 13.9874 16.2265 1.26033
7390 1 1 14.6782 16.2755 0.649047
7787 1 1 18.1068 16.3716 1.68039
5999 1 1 1.00331 18.1257 1.3964
314 1 1 18.544 0.0651479 0.987134
1569 1 1 1.63094 17.5836 0.678391
7210 1 1 3.28286 18.3981 1.20506
1257 1 1 4.38882 18.4535 0.743036
1895 1 1 5.40665 18.0092 0.722307
43 1 1 6.71265 17.3934 0.825314
292 1 1 6.19838 18.4135 1.3564
287 1 1 6.30811 18.1619 0.0871891
55 1 1 7.64604 17.863 1.82205
6822 1 1 9.70303 17.0048 0.597239
496 1 1 9.09997 17.9259 0.903884
224 1 1 10.8238 18.688 0.252224
7713 1 1 12.0256 18.4512 0.481684
343 1 1 13.429 18.5774 0.365587
2661 1 1 13.9447 17.3163 0.331403
31 1 1 14.4042 18.5751 0.0812477
7149 1 1 14.4079 18.757 1.94385
1110 1 1 15.5084 18.3421 0.0824914
1785 1 1 15.4027 18.1187 1.51227
843 1 1 16.7435 17.6771 0.838433
847 1 1 1.11901 18.6775 2.325
47 1 1 0.777874 1.92899 2.92293
7647 1 1 1.23099 0.950331 2.37362
399 1 1 4.48911 0.64846 1.36196
1327 1 1 2.36394 0.65239 2.09761
860 1 1 3.31009 18.7162 3.35774
487 1 1 4.22084 0.596176 2.68797
480 1 1 5.88566 1.53596 3.24618
450 1 1 7.47737 0.855002 1.49476
7996 1 1 6.57565 0.666418 3.20235
6851 1 1 7.87661 18.6789 0.969609
1658 1 1 9.42209 0.425088 1.78961
887 1 1 10.3899 0.222698 2.15908
543 1 1 12.4089 0.939166 1.66469
1344 1 1 13.6059 0.655493 2.56399
576 1 1 16.7128 0.286026 2.36026
7930 1 1 16.3722 1.11265 1.90445
745 1 1 18.8041 2.11572 1.19477
328 1 1 18.393 1.02355 1.37009
762 1 1 0.364563 2.61699 2.25468
115 1 1 1.96189 2.03863 2.6776
445 1 1 3.949 1.5163 2.68861
7284 1 1 4.93047 1.83793 1.84256
2046 1 1 5.76919 2.63028 2.57247
611 1 1 4.51741 2.76748 2.6007
6986 1 1 6.76692 2.23175 2.97642
7215 1 1 6.2708 1.43476 2.13013
566 1 1 7.853 2.12681 1.80146
7785 1 1 9.72409 1.84489 1.71273
505 1 1 10.958 1.46795 1.58186
385 1 1 10.6518 2.18312 2.79355
1213 1 1 12.0116 2.26585 2.94084
7844 1 1 15.0558 2.24715 2.19332
1670 1 1 15.5319 3.11157 2.2319
511 1 1 16.2977 2.2382 1.86564
1634 1 1 17.2087 1.58919 3.56466
7440 1 1 17.4036 2.39988 1.80059
7669 1 1 16.4305 1.84155 2.88291
1231 1 1 18.5538 1.22681 2.46215
966 1 1 0.903162 3.88338 2.93028
6882 1 1 2.57043 3.28289 2.50508
479 1 1 3.53117 3.65617 2.5741
318 1 1 3.53855 2.5754 2.59093
7251 1 1 4.81482 4.43453 1.69794
1331 1 1 5.27817 3.56459 2.53302
527 1 1 5.74286 4.96714 1.95729
7532 1 1 6.60802 2.83182 1.70814
6767 1 1 5.97742 4.25958 3.25205
6659 1 1 8.46396 3.4377 1.40457
2348 1 1 7.75493 3.39368 2.42316
886 1 1 9.94742 3.3473 2.33579
91 1 1 11.3434 4.19088 2.35912
1004 1 1 11.9913 3.2446 1.50438
7246 1 1 14.4015 3.56006 1.8089
581 1 1 14.0171 4.49796 2.90523
1473 1 1 15.1135 4.62432 2.80568
18 1 1 16.4151 3.30208 1.78762
537 1 1 16.792 4.1303 2.83984
6648 1 1 17.8344 3.13648 1.0117
35 1 1 18.5109 3.71822 1.94046
1265 1 1 1.03442 5.03543 2.75211
7966 1 1 0.0228368 4.8053 2.14665
406 1 1 2.17149 4.41246 2.64932
835 1 1 4.48036 5.65937 1.84436
1287 1 1 4.09842 4.78111 2.41433
548 1 1 6.51782 5.9001 2.10349
5739 1 1 9.15644 4.74461 3.20983
1466 1 1 7.73524 5.49431 1.73773
661 1 1 8.41286 4.15674 2.6109
464 1 1 9.69294 4.53813 2.26689
1379 1 1 8.84771 5.19501 2.33721
7611 1 1 11.3899 5.90188 0.976265
7666 1 1 11.8735 5.35713 2.00571
6541 1 1 12.8957 3.73906 2.03105
7468 1 1 16.0169 4.80203 1.67968
2432 1 1 15.8062 5.44526 3.61516
6762 1 1 17.9396 5.03968 1.77306
1983 1 1 17.2081 5.06567 2.42373
651 1 1 18.1343 4.73665 2.81396
2110 1 1 0.911116 8.02902 2.69546
206 1 1 1.08509 6.74401 2.44286
1766 1 1 2.32357 5.43945 1.89962
1158 1 1 3.74003 5.90071 3.14428
7879 1 1 7.02679 7.08502 1.75819
158 1 1 5.7781 6.62139 2.51976
585 1 1 8.57552 6.62168 2.57403
623 1 1 9.56712 7.13496 2.39912
7096 1 1 9.46468 5.98875 1.91347
2103 1 1 11.1336 6.9619 1.31976
934 1 1 12.3181 6.06677 2.60154
7904 1 1 11.1659 5.83841 2.72785
1833 1 1 13.3809 5.72931 1.77053
6316 1 1 13.1265 7.43329 2.69596
7758 1 1 15.5898 6.07072 2.71099
431 1 1 16.6378 5.87942 2.51753
7679 1 1 16.2451 5.93801 1.39391
34 1 1 0.0665258 5.87218 2.32548
190 1 1 18.6359 6.8067 1.63703
1318 1 1 0.185312 8.21207 1.45824
1113 1 1 2.03149 7.48078 2.70476
408 1 1 3.14108 7.78216 3.24924
565 1 1 3.02402 8.40791 1.75839
7683 1 1 5.15523 8.18946 2.32636
532 1 1 6.30893 8.52061 1.46945
7921 1 1 7.66761 7.95746 1.64239
7862 1 1 6.54632 7.42871 2.78117
570 1 1 8.68742 7.94419 1.79857
7002 1 1 9.55077 8.45177 1.37384
697 1 1 9.5867 7.99579 3.08189
7422 1 1 10.8179 7.71458 2.98504
1330 1 1 11.3791 7.8389 1.81766
193 1 1 12.2666 8.4473 2.41836
1262 1 1 11.8071 6.95816 2.34661
498 1 1 14.9608 8.06846 1.57246
271 1 1 15.6293 6.67234 1.84787
1000 1 1 17.0943 6.72556 2.03798
6675 1 1 15.9836 7.99385 2.51793
6875 1 1 17.605 8.27434 1.86395
996 1 1 0.994538 10.2299 2.9255
1105 1 1 1.73118 9.42188 2.51597
289 1 1 1.71808 9.81306 1.34988
7967 1 1 2.527 9.35087 1.7041
7248 1 1 3.38554 9.68917 2.63367
1093 1 1 4.39858 10.4682 1.97399
627 1 1 5.35287 10.0628 1.54162
541 1 1 5.86232 9.06003 2.43943
2065 1 1 8.72011 8.85842 2.24029
1648 1 1 7.10899 9.18441 2.88836
7953 1 1 9.9079 9.29372 2.75583
955 1 1 8.94303 10.1672 2.07084
615 1 1 10.2953 8.47004 2.15591
188 1 1 11.6106 9.34959 2.14235
276 1 1 13.2824 8.71175 1.66859
676 1 1 13.519 9.18682 2.81728
223 1 1 15.6014 8.77422 1.05917
960 1 1 15.2431 8.75214 2.78198
1863 1 1 16.9817 9.25539 2.45689
536 1 1 16.5562 9.10185 1.05194
1870 1 1 16.8491 10.2109 1.84622
1728 1 1 18.573 10.1948 1.69324
7845 1 1 1.79475 10.3475 2.22321
7474 1 1 0.389804 11.1881 1.70576
590 1 1 2.67062 10.5557 2.68871
715 1 1 1.74926 10.9982 3.39245
7326 1 1 2.98961 10.8071 1.62295
7576 1 1 4.86233 11.4257 1.94527
925 1 1 5.10352 11.0589 2.96229
970 1 1 6.08051 11.0938 1.93813
825 1 1 7.04158 10.6689 2.07759
2418 1 1 5.72699 10.3175 2.45978
7531 1 1 7.90192 10.0758 1.91528
699 1 1 8.39636 11.0786 1.5856
1784 1 1 9.65376 10.9091 2.61648
7538 1 1 11.228 11.2156 2.78799
7536 1 1 10.5573 10.6432 1.52505
610 1 1 12.3149 10.9837 2.96309
7851 1 1 12.5637 11.0871 1.19618
1533 1 1 13.1525 10.3418 2.43459
433 1 1 11.5749 10.1049 1.35524
285 1 1 14.4548 10.6181 3.4477
146 1 1 17.7967 11.0461 1.68176
7480 1 1 17.5813 11.1706 2.87069
1637 1 1 18.7435 10.9128 2.88872
967 1 1 0.50498 12.6748 2.55309
7249 1 1 1.92264 11.5016 1.9553
647 1 1 3.62305 13.1844 1.03631
7482 1 1 3.7428 10.9507 2.56293
7376 1 1 5.26288 12.4863 1.84952
1163 1 1 4.33854 12.9724 2.34724
1417 1 1 5.59124 11.828 2.60531
374 1 1 6.60039 12.1628 1.76941
277 1 1 7.5106 11.7121 2.44377
64 1 1 7.60524 12.785 2.86226
1908 1 1 8.74887 13.1835 2.16699
1542 1 1 9.72133 11.4358 1.47797
7545 1 1 11.345 12.787 2.02263
6832 1 1 12.3495 11.917 1.99913
574 1 1 12.9848 12.6561 2.25779
234 1 1 15.657 11.7914 2.48547
683 1 1 14.3196 11.722 1.94879
7867 1 1 16.9356 12.1384 2.32724
300 1 1 18.3444 11.6132 2.32604
757 1 1 2.18136 13.662 2.22538
688 1 1 2.82425 12.7095 1.82216
8000 1 1 3.21374 13.9122 1.50144
1561 1 1 3.88887 14.165 2.41074
7403 1 1 5.86789 13.1634 2.49882
1210 1 1 7.13629 13.5244 1.93388
815 1 1 6.78768 13.9295 2.80349
227 1 1 9.87666 12.8911 2.13042
872 1 1 12.345 13.2754 2.0078
7990 1 1 10.6399 14.3697 2.76082
6750 1 1 15.7568 13.7487 2.28727
6824 1 1 15.8807 12.9275 1.28361
6720 1 1 17.7143 13.6537 2.46364
7350 1 1 18.1833 12.5884 1.7813
7849 1 1 0.694791 15.4773 1.72398
643 1 1 1.25613 16.2857 2.59415
2837 1 1 1.69501 14.6888 2.6939
7561 1 1 2.45119 15.1751 1.8178
1638 1 1 3.44322 15.7951 1.58323
1531 1 1 3.3782 14.8941 1.95441
154 1 1 4.52578 15.7896 1.78866
584 1 1 5.87691 14.5066 2.70858
1047 1 1 6.36033 16.5108 2.33644
1178 1 1 7.06909 15.2889 1.66151
286 1 1 9.59966 14.3541 2.16974
823 1 1 8.98045 15.3177 1.83271
1170 1 1 10.9898 15.2151 2.08623
1706 1 1 11.6893 13.9462 3.33845
423 1 1 12.7123 15.0834 2.49802
22 1 1 13.7854 15.1771 1.76564
2345 1 1 13.1225 14.0579 2.12734
1042 1 1 15.8441 15.5235 1.86387
6535 1 1 14.6787 14.7222 1.30869
425 1 1 16.3421 14.5455 1.70887
375 1 1 16.9957 15.8845 2.37737
6905 1 1 16.958 16.0704 1.23541
1567 1 1 16.4565 14.2728 2.74871
163 1 1 0.132153 13.5994 2.59431
7811 1 1 18.0081 16.0208 2.76815
6592 1 1 18.7154 15.5676 1.13267
2367 1 1 18.5625 17.3966 2.18425
7999 1 1 0.135742 16.2345 2.18642
608 1 1 1.08584 17.7158 2.27995
1146 1 1 2.42976 15.4615 3.07848
682 1 1 2.27751 16.5175 1.9337
1140 1 1 3.49158 16.8152 1.71806
834 1 1 4.16134 16.6451 2.95281
1453 1 1 4.44734 17.2203 1.51495
7180 1 1 5.67635 16.7795 1.51793
1328 1 1 5.17637 16.9713 2.51097
7926 1 1 5.48238 16.0011 2.24221
7698 1 1 6.62148 17.5425 2.02739
141 1 1 8.58524 16.4557 2.72608
7700 1 1 10.1272 15.2727 2.61899
6027 1 1 10.7749 16.3186 1.60238
1133 1 1 10.769 16.8194 2.50387
726 1 1 11.7054 15.6718 2.94152
7987 1 1 12.629 16.4378 2.12642
1590 1 1 13.8193 16.5879 2.69743
1200 1 1 17.4488 17.2 2.83695
7163 1 1 16.091 16.6642 2.67617
7188 1 1 0.494495 18.2481 3.24306
7968 1 1 2.40638 17.7831 1.41114
7887 1 1 1.92086 18.485 3.02295
7581 1 1 5.30998 18.5111 1.78475
1094 1 1 2.82155 17.8792 2.42284
7119 1 1 4.56512 17.7935 2.82578
2824 1 1 5.83232 0.627384 2.11609
7503 1 1 7.0649 0.0170795 2.31301
1582 1 1 8.38169 17.1728 1.88185
841 1 1 9.03362 17.3275 2.73285
814 1 1 9.97609 18.5914 0.97601
7588 1 1 9.98846 17.8676 2.56431
708 1 1 11.229 17.7346 1.12534
7745 1 1 11.2779 18.1269 2.56943
2020 1 1 11.296 18.7959 1.37422
421 1 1 13.5822 18.4927 3.00368
788 1 1 14.9814 17.951 2.62818
33 1 1 17.5914 17.8428 1.78329
525 1 1 16.2083 0.18592 0.755488
7903 1 1 0.110189 18.3338 1.78066
310 1 1 1.19245 1.24969 3.71774
552 1 1 0.294166 0.654409 3.28421
915 1 1 2.08772 1.09059 3.12897
7123 1 1 5.19221 0.954161 4.08851
293 1 1 5.54808 18.4799 3.54679
1488 1 1 5.03622 18.7814 4.70073
96 1 1 7.80381 0.964843 4.12863
7535 1 1 7.08199 0.16351 4.23061
1339 1 1 7.76083 0.623471 2.59578
7619 1 1 7.51855 18.5525 3.21822
239 1 1 9.55863 0.110174 4.06567
7616 1 1 9.29443 1.12163 2.50431
700 1 1 10.2568 18.8155 3.34628
7478 1 1 11.5798 0.989364 2.81764
6673 1 1 11.4846 18.6263 3.73531
7155 1 1 11.5783 0.929889 4.7777
1992 1 1 13.5973 1.29212 3.93205
671 1 1 12.7578 1.06499 4.6102
383 1 1 15.5149 1.19293 2.52258
1229 1 1 15.333 1.44942 4.74407
7914 1 1 15.5266 0.0966265 4.20949
7549 1 1 15.2614 0.148179 2.87715
1020 1 1 16.3497 1.05533 3.98622
558 1 1 17.1413 0.441409 3.47512
1223 1 1 17.468 1.31623 4.47793
727 1 1 2.7128 1.62593 4.30538
1373 1 1 2.10145 2.38485 4.77256
7754 1 1 5.09715 2.15042 3.33401
2126 1 1 8.34078 1.67719 3.19247
593 1 1 9.94693 1.59337 3.3545
528 1 1 10.7773 1.94005 4.16732
7287 1 1 12.6531 1.09465 3.30548
180 1 1 12.1013 1.78511 4.28928
906 1 1 13.9032 2.50265 3.26959
636 1 1 15.4493 2.23928 3.56682
874 1 1 16.599 2.80425 3.74988
6975 1 1 1.06703 4.55592 3.71317
1202 1 1 3.97787 4.00036 3.37354
2365 1 1 4.1244 3.46424 4.34917
936 1 1 3.97728 3.02665 3.47076
1376 1 1 5.64707 2.93637 3.73826
7648 1 1 6.5642 3.34172 3.84433
1378 1 1 7.73669 2.70177 3.43735
1309 1 1 7.51154 3.84411 4.01217
890 1 1 9.12932 3.83661 3.83417
1416 1 1 8.9526 2.79481 2.12811
173 1 1 11.95 2.70055 3.95625
7250 1 1 12.811 2.75479 3.16142
1826 1 1 14.5984 3.39902 3.66969
1336 1 1 15.542 3.50185 3.39889
7776 1 1 16.51 3.91628 4.0818
1672 1 1 17.5059 3.70809 3.53043
148 1 1 17.1947 2.86939 2.82369
1718 1 1 0.355189 2.6881 3.21198
7122 1 1 18.442 3.21465 3.69723
7950 1 1 18.7645 4.45119 3.50968
62 1 1 2.13761 4.24059 3.65188
580 1 1 2.42656 5.76654 3.34722
1409 1 1 5.02988 4.41254 2.79712
358 1 1 4.96347 3.79915 3.73028
440 1 1 5.74012 5.36103 3.67742
1809 1 1 6.69309 4.9376 3.73691
488 1 1 8.38175 5.70677 3.35592
1076 1 1 9.80137 5.63784 3.47496
469 1 1 9.33191 5.14498 4.49862
140 1 1 10.2853 5.07416 5.04311
2736 1 1 11.0965 5.28253 3.88611
7625 1 1 10.5283 4.99026 2.82231
1377 1 1 12.9487 4.19805 3.20868
2305 1 1 11.6359 3.72464 3.24596
958 1 1 13.1592 5.33918 2.85563
850 1 1 13.3927 5.02315 3.90362
1438 1 1 14.5265 5.69032 4.22194
1348 1 1 16.7428 4.88447 3.68712
2071 1 1 17.8632 4.78126 4.34751
913 1 1 0.805424 6.35677 3.29066
481 1 1 0.264208 7.05113 4.20229
928 1 1 3.21635 5.99501 4.11684
98 1 1 1.91846 6.60563 3.68299
983 1 1 3.74354 5.14876 3.85415
114 1 1 3.8305 6.8732 3.79729
1427 1 1 5.46243 6.41698 3.97538
7718 1 1 5.22736 5.7355 2.68053
1052 1 1 6.40721 6.83732 3.96019
7138 1 1 6.68799 6.38881 3.03012
7823 1 1 7.3571 6.0713 4.02949
1051 1 1 7.77733 7.06354 3.54754
153 1 1 9.35495 6.46139 4.09425
557 1 1 11.39 6.64854 3.36415
1759 1 1 10.4077 6.36734 3.46639
1070 1 1 13.0298 6.5297 3.50046
387 1 1 12.0548 5.26023 3.51429
7273 1 1 12.5779 7.55295 3.61638
2197 1 1 13.7369 7.14544 3.97136
470 1 1 14.1329 5.92654 2.9251
1925 1 1 13.7277 6.35428 4.64165
602 1 1 16.1638 6.5061 3.81134
1939 1 1 14.675 6.73811 3.88417
7444 1 1 15.9623 7.06831 3.048
1275 1 1 17.181 6.76097 4.00182
144 1 1 18.306 5.64556 3.86508
1793 1 1 18.5913 6.98457 3.18072
1709 1 1 18.0779 6.77247 4.83757
959 1 1 0.109189 8.59401 3.0511
1596 1 1 2.04717 8.46815 3.24304
7395 1 1 1.79471 7.76494 4.10284
403 1 1 2.82156 8.22819 4.37561
1475 1 1 5.02715 7.82134 3.84388
1883 1 1 4.56161 6.70654 3.14791
7659 1 1 5.44136 7.4233 2.98835
45 1 1 5.89197 8.15963 4.3039
1177 1 1 6.82035 8.41735 3.42815
7701 1 1 5.40515 9.10832 3.9192
1301 1 1 8.04029 8.0656 2.77639
1008 1 1 8.6981 8.07969 3.90101
980 1 1 10.1128 7.37012 3.72267
7654 1 1 11.158 8.04406 4.11755
519 1 1 13.9338 8.10785 3.20109
1478 1 1 14.5458 8.35985 3.92134
1441 1 1 14.9145 7.58613 3.24977
736 1 1 15.4458 9.15281 3.76565
1631 1 1 17.6715 7.43719 3.34293
1715 1 1 16.2838 8.5297 3.71399
628 1 1 16.3766 7.29363 4.65797
1942 1 1 17.5209 8.37279 2.92765
2239 1 1 0.443656 8.91428 4.05968
1917 1 1 2.00628 10.1514 3.64287
2084 1 1 3.67887 8.98946 4.08758
7791 1 1 4.88624 9.69866 2.64642
1003 1 1 4.487 9.71934 4.02341
344 1 1 6.20187 9.42056 3.30015
345 1 1 7.28667 10.0529 3.22239
1001 1 1 7.83645 9.04584 3.5055
1649 1 1 9.72891 8.15528 4.46501
7461 1 1 10.2552 8.56401 3.49127
231 1 1 11.2132 9.19411 3.19624
241 1 1 10.6929 10.0162 3.38331
944 1 1 13.6137 8.84278 4.03454
1422 1 1 15.1549 9.72478 2.96448
108 1 1 16.8522 9.77615 3.29951
1350 1 1 18.0864 9.10455 3.63644
6972 1 1 18.045 9.83143 2.52748
667 1 1 0.0789379 10.1572 3.69993
7603 1 1 0.760306 11.1948 3.53879
1878 1 1 2.78095 11.5851 4.63867
7805 1 1 3.09798 11.2421 3.54416
6683 1 1 4.3599 11.9987 2.98314
639 1 1 4.45339 10.4437 3.19332
478 1 1 5.48759 11.6554 3.63015
290 1 1 6.3509 11.0828 3.35844
3250 1 1 9.46221 9.98164 3.39304
1069 1 1 8.15467 9.51215 4.62596
1530 1 1 7.90997 11.5019 4.30833
1825 1 1 9.05585 11.5762 2.3859
136 1 1 9.33468 11.4574 4.46836
1175 1 1 10.7689 10.8876 3.98281
2062 1 1 11.7471 10.7399 3.98775
1460 1 1 12.9136 10.3465 3.57289
638 1 1 13.8092 9.80489 3.6565
1537 1 1 13.5279 11.1667 3.84031
1183 1 1 15.8824 10.1358 3.92128
1189 1 1 14.8144 11.7135 3.51408
790 1 1 17.8631 10.2308 3.53121
1965 1 1 17.5959 11.4349 3.9114
877 1 1 0.806663 11.7548 2.49687
1968 1 1 1.36769 12.1739 3.28054
6563 1 1 2.03504 13.6669 3.60643
1128 1 1 2.73854 12.2605 3.07784
1445 1 1 1.48152 12.6042 2.14809
2748 1 1 3.3003 13.2403 3.01657
1486 1 1 3.37207 12.4097 3.87851
365 1 1 5.22704 12.5672 3.42755
684 1 1 6.03309 12.406 4.40124
1046 1 1 6.77818 11.9736 3.2161
1224 1 1 8.32667 11.8308 2.97632
1103 1 1 10.1476 11.7967 2.4013
1357 1 1 8.67676 12.289 4.23794
1112 1 1 12.1116 11.9205 3.62605
386 1 1 13.0767 12.405 3.32026
7858 1 1 13.9545 12.1972 2.88342
6599 1 1 15.1088 12.5225 2.94547
1107 1 1 14.7632 12.5467 4.09076
235 1 1 15.9231 11.1111 3.37176
7052 1 1 16.3628 12.7475 2.94257
7993 1 1 16.2449 13.0418 3.89902
265 1 1 16.7805 10.8466 3.9441
1005 1 1 17.6402 12.2918 3.0782
6674 1 1 0.316235 12.2335 4.14231
1276 1 1 18.5869 11.733 3.42371
724 1 1 0.739538 13.1673 3.6632
85 1 1 2.6123 14.38 3.01841
336 1 1 1.06783 14.4334 3.61477
325 1 1 4.51129 13.6499 3.1657
1958 1 1 3.13032 13.2943 4.21742
1504 1 1 6.24208 13.1943 3.87622
7464 1 1 7.23825 13.3939 3.55213
7620 1 1 9.01053 14.4198 3.03338
2425 1 1 9.30011 13.893 4.04323
1545 1 1 8.40092 13.1993 3.44859
1174 1 1 9.79001 12.8884 3.66066
7550 1 1 11.2875 13.027 3.5245
7040 1 1 13.2176 13.4268 2.9816
1187 1 1 13.0145 14.1761 4.26785
389 1 1 14.5387 13.3537 3.32947
2414 1 1 13.7983 14.4683 3.18563
670 1 1 17.8703 14.4763 3.16866
7515 1 1 17.524 14.5743 4.33282
6719 1 1 17.1902 13.7201 3.38369
306 1 1 18.3469 13.4325 3.37127
712 1 1 17.6834 12.9829 4.12742
2358 1 1 0.189212 14.0807 4.17562
1086 1 1 1.17876 15.5317 3.4326
393 1 1 0.662326 14.7978 2.53986
1173 1 1 1.93752 15.3007 4.39575
7840 1 1 3.41073 15.0646 3.07515
971 1 1 3.60405 15.8191 4.33749
260 1 1 4.19283 14.7142 3.95033
1912 1 1 7.02295 15.008 3.45084
1266 1 1 6.28821 14.3404 3.68977
1932 1 1 6.40747 16.0934 4.37781
7984 1 1 8.10884 14.4277 2.63534
504 1 1 8.02582 15.0538 3.70875
411 1 1 8.83904 15.4007 2.9734
468 1 1 9.8517 15.2029 3.92546
2224 1 1 12.7771 15.1173 3.46275
7855 1 1 13.8502 15.4799 2.97811
1474 1 1 15.5802 15.1451 3.76273
1916 1 1 14.6621 14.2824 2.28702
982 1 1 15.0326 14.106 4.26742
1087 1 1 16.158 14.3869 4.01851
1234 1 1 17.0073 15.0603 3.56345
853 1 1 18.5705 15.2811 3.40882
2776 1 1 18.5194 16.3232 3.84833
2033 1 1 0.269496 17.011 2.94233
809 1 1 1.36076 16.1548 4.74182
728 1 1 2.24775 16.5648 2.99069
7957 1 1 4.30007 16.6556 4.41016
902 1 1 3.22457 16.2751 3.28152
1485 1 1 4.75385 15.8747 2.96527
937 1 1 6.00524 17.5412 3.11667
1179 1 1 5.15296 16.0656 4.19828
391 1 1 6.89069 16.1981 3.31009
394 1 1 5.9131 17.4125 4.28836
1527 1 1 5.74338 15.1946 3.69472
1500 1 1 8.02993 16.2326 3.54979
460 1 1 9.76605 16.0918 4.3531
7176 1 1 8.94118 17.0691 3.67392
256 1 1 11.0009 15.3244 3.90431
781 1 1 10.0312 16.4816 3.52683
7230 1 1 12.0293 16.9718 3.36696
818 1 1 13.5469 16.1839 3.94661
2150 1 1 14.4847 16.5469 3.6974
1167 1 1 12.8839 17.4732 4.34454
1119 1 1 15.5326 16.5902 3.88724
443 1 1 16.5167 16.5507 3.67672
1539 1 1 16.2849 17.6921 3.84665
990 1 1 17.4516 18.2365 4.09651
1149 1 1 17.4681 15.9947 3.8683
1007 1 1 17.8514 17.2866 3.98859
2471 1 1 1.20576 18.1936 3.94686
397 1 1 2.01185 18.5827 4.42612
1198 1 1 1.32812 17.2696 3.34055
1514 1 1 2.48484 17.4393 3.57914
2285 1 1 4.44883 18.5601 3.60376
7197 1 1 4.85426 17.468 3.99356
7613 1 1 6.13757 18.4856 2.52415
829 1 1 6.92012 17.6752 3.59355
3576 1 1 7.81421 17.2415 3.15809
94 1 1 8.98431 18.3357 3.31721
1687 1 1 8.83537 17.8334 4.31316
885 1 1 10.7078 17.9373 3.56997
2270 1 1 12.5138 18.7362 3.23124
149 1 1 14.6305 17.8446 3.54011
7911 1 1 16.176 0.274347 3.34716
7 1 1 17.0472 18.1361 2.77539
785 1 1 0.148936 18.5373 4.92287
427 1 1 18.2465 18.5704 3.42366
1205 1 1 0.479498 0.721303 4.53855
430 1 1 2.49699 0.0168627 5.3484
845 1 1 2.11462 1.29134 5.0757
105 1 1 4.04157 1.11438 4.17361
1367 1 1 3.2759 0.951816 5.18645
894 1 1 4.06861 0.00124163 4.49468
1442 1 1 4.61743 0.857478 5.2826
7896 1 1 5.864 1.02863 5.30797
1776 1 1 6.11328 0.0653454 5.16446
2176 1 1 6.758 1.15872 4.65619
209 1 1 7.82092 1.5928 5.20267
7762 1 1 7.3873 0.140943 5.21956
7997 1 1 10.0432 0.730814 5.57544
1505 1 1 10.5389 0.152765 4.66741
7989 1 1 10.8937 1.46752 5.34568
553 1 1 12.5555 1.62454 5.62127
1587 1 1 12.7574 0.398674 5.36879
946 1 1 14.504 0.530283 4.47331
859 1 1 13.3159 0.0158445 4.37645
870 1 1 13.8856 0.752755 5.37001
1999 1 1 15.1968 0.645245 5.27984
7601 1 1 18.5318 0.675035 5.79436
2681 1 1 1.1682 0.967236 5.87796
954 1 1 1.2316 1.63595 4.81034
547 1 1 3.03746 2.69412 5.91216
1279 1 1 4.06594 1.93079 5.19661
951 1 1 5.11564 1.75556 5.49632
1355 1 1 5.83035 1.68761 4.47657
1852 1 1 7.00259 1.89015 3.89779
1181 1 1 6.90554 2.35077 5.39611
2054 1 1 8.33821 2.54048 5.43972
824 1 1 8.47852 2.35262 4.09841
587 1 1 9.39064 1.97968 5.88694
3337 1 1 8.8059 1.72497 4.9224
1308 1 1 11.0803 3.30791 4.91048
1749 1 1 10.0695 1.14571 4.53772
1317 1 1 11.458 2.45866 5.4521
1203 1 1 12.5365 2.81682 5.30867
1661 1 1 14.4789 1.80727 4.3659
1755 1 1 13.5639 1.71864 5.54275
780 1 1 15.7773 3.71774 5.53459
1345 1 1 15.2521 2.79393 4.91521
7044 1 1 15.7748 2.24375 5.42892
409 1 1 14.7413 1.79561 5.52904
2323 1 1 16.5443 1.81048 4.95624
151 1 1 18.0212 2.33614 4.33935
109 1 1 18.8027 1.55441 4.83769
139 1 1 1.42365 3.73877 5.27308
412 1 1 2.31533 3.37621 5.59884
7028 1 1 3.06815 3.11697 4.76503
1930 1 1 3.5879 2.49767 4.26069
848 1 1 4.71238 3.7523 5.52961
656 1 1 5.05084 2.51679 4.5778
1323 1 1 6.38937 2.85348 4.7843
1255 1 1 7.59842 2.58947 4.43097
7843 1 1 6.66887 4.41003 5.64253
2397 1 1 6.09387 4.04169 4.67224
1089 1 1 5.55837 4.24686 6.02433
492 1 1 9.25135 3.22569 4.74231
7219 1 1 7.62443 3.45013 4.93841
1039 1 1 9.87403 2.25895 4.89076
2139 1 1 11.1474 3.53299 6.06375
898 1 1 10.1546 3.92347 5.12842
32 1 1 12.7024 3.46835 4.13688
1044 1 1 13.596 2.75009 6.05305
7827 1 1 13.9481 2.9168 4.60826
591 1 1 15.3376 4.08135 4.33018
1413 1 1 16.3641 3.0076 4.77459
1395 1 1 16.8738 3.39329 5.67526
1338 1 1 17.4818 3.68994 4.8113
155 1 1 0.352471 5.31757 4.17474
6804 1 1 1.07591 4.83569 5.73845
1717 1 1 1.61186 5.03743 4.73009
1241 1 1 2.0367 4.38909 5.39612
7661 1 1 4.24409 4.71882 4.73477
729 1 1 4.78893 6.04405 4.93095
1159 1 1 5.5345 5.41439 5.79332
1280 1 1 6.98367 6.38109 5.42087
1099 1 1 6.90417 5.37569 6.26207
454 1 1 8.02644 4.90185 4.74483
1664 1 1 11.2151 4.35366 5.43106
6463 1 1 12.8156 5.67668 4.4183
2221 1 1 11.8395 5.23675 5.10234
985 1 1 11.9219 4.5918 4.349
7712 1 1 13.7416 5.38587 4.92834
2392 1 1 15.2519 5.63401 5.21564
2075 1 1 14.2833 4.03504 4.84195
914 1 1 16.8534 5.43506 4.76964
6443 1 1 18.4823 3.94164 4.31342
7228 1 1 17.6462 4.58735 5.36969
1538 1 1 0.624314 6.87357 5.31422
1443 1 1 2.89612 4.89022 4.26575
7651 1 1 1.44703 6.0553 4.99607
523 1 1 1.82477 7.00363 4.7941
1543 1 1 3.8944 5.67186 4.85514
1754 1 1 3.79475 6.88043 4.96826
1410 1 1 3.92088 6.96273 6.69946
1802 1 1 5.64833 6.5859 5.16073
904 1 1 7.41041 7.51427 5.54884
571 1 1 8.50552 6.96439 4.51182
177 1 1 8.54144 5.89733 4.58418
6627 1 1 9.73156 6.04492 4.97263
685 1 1 10.1412 6.1733 6.2009
1724 1 1 9.81381 6.85288 5.5642
102 1 1 11.3546 6.12752 4.7778
1519 1 1 11.2585 6.37275 5.95655
281 1 1 12.9983 6.37183 5.42439
1291 1 1 13.8681 6.02684 5.89332
908 1 1 14.7169 6.45289 5.54893
7804 1 1 15.992 6.24162 4.77136
7352 1 1 14.4516 7.13783 4.8593