ITEM: TIMESTEP
1500
ITEM: NUMBER OF ATOMS
8000
ITEM: BOX BOUNDS pp pp pp
0.0000000000000000e+00 1.8820720577620570e+01
0.0000000000000000e+00 1.8820720577620570e+01
0.0000000000000000e+00 3.7641441155241139e+01
ITEM: ATOMS id mass type x y z
913 1 1 1.28473 2.25923 1.7492
397 1 1 2.36094 18.0972 36.7968
802 1 1 4.05835 3.15424 36.9293
7972 1 1 2.65823 3.99429 0.327399
405 1 1 3.99428 3.82721 35.6727
7614 1 1 7.00597 1.33336 1.31571
18 1 1 4.65224 2.39905 37.5802
89 1 1 5.07408 2.48359 36.367
1226 1 1 7.94395 0.028964 2.73728
7287 1 1 10.9313 1.72221 1.20244
7861 1 1 11.3286 0.757749 37.0977
390 1 1 9.33228 2.51129 3.50475
1138 1 1 11.6401 1.71828 2.44899
787 1 1 13.0442 0.288882 37.4981
7938 1 1 13.2245 1.23774 0.830271
7341 1 1 16.0408 0.300105 37.248
7188 1 1 16.4343 17.8413 0.530408
113 1 1 17.8659 16.9395 0.572514
1964 1 1 16.4636 1.42497 1.09968
7044 1 1 17.2323 17.747 1.37057
1142 1 1 17.3211 0.948544 0.425649
412 1 1 1.05591 1.66479 0.701744
7265 1 1 0.273348 1.89982 1.55542
7633 1 1 1.0243 4.28201 1.09258
1160 1 1 3.50403 3.54821 0.781867
1237 1 1 1.07638 2.83295 0.455945
6767 1 1 2.17062 4.12279 2.81072
319 1 1 3.50138 2.14592 0.749596
7316 1 1 4.47468 3.47979 34.8261
527 1 1 6.54469 0.916332 0.310243
1295 1 1 7.89352 1.19031 0.133499
7303 1 1 9.27977 1.48606 36.5842
116 1 1 10.961 2.82292 36.8767
385 1 1 9.22695 2.99714 2.56747
7989 1 1 10.5225 2.60218 1.57358
149 1 1 13.3332 2.52353 0.602038
39 1 1 14.406 2.65642 0.214914
100 1 1 11.7491 1.21671 0.31545
7549 1 1 14.2408 1.60807 0.738553
746 1 1 14.6216 1.60378 37.3698
157 1 1 15.8829 1.62992 2.12608
7293 1 1 15.9719 1.18313 0.0326501
480 1 1 18.2757 2.4478 3.47051
835 1 1 3.09007 4.46461 1.47091
796 1 1 4.28873 5.09636 1.89244
2432 1 1 18.803 6.88141 0.320012
44 1 1 5.23634 4.40924 0.714399
445 1 1 2.75163 0.75522 1.86164
6648 1 1 5.62772 2.73519 0.505389
1373 1 1 6.80432 3.22652 2.06277
5739 1 1 6.66985 2.42538 1.41324
1739 1 1 5.14075 4.06411 36.901
529 1 1 6.86836 3.43058 0.752868
696 1 1 6.63409 2.99832 36.3837
171 1 1 8.35756 2.32088 2.99153
7698 1 1 8.65587 2.63681 1.39772
633 1 1 9.55521 3.68585 37.6035
7821 1 1 12.5512 3.1652 0.685954
1309 1 1 14.5594 3.8951 1.00671
874 1 1 16.147 2.45424 1.696
1668 1 1 16.9513 2.55949 36.1952
1634 1 1 16.3479 4.02513 0.202788
752 1 1 1.21676 4.44626 3.08571
431 1 1 17.5625 5.39309 0.157881
324 1 1 1.17891 5.2638 1.59223
7641 1 1 1.7508 6.15497 1.49545
6443 1 1 2.92495 6.00215 1.16189
7371 1 1 3.16972 5.04855 0.399901
440 1 1 5.65662 5.03719 37.239
1339 1 1 6.69236 5.89652 1.45633
3 1 1 6.50833 4.41357 37.4111
6136 1 1 6.95051 8.11138 1.63549
7250 1 1 9.86681 3.31323 0.948073
15 1 1 6.21487 7.50447 0.935459
623 1 1 8.72823 5.77595 0.642249
779 1 1 10.4518 4.53045 37.6249
7776 1 1 12.6685 4.3851 0.893926
6986 1 1 12.5545 5.57848 2.37241
7745 1 1 11.2542 5.19118 0.435132
7591 1 1 13.414 3.76101 0.401524
515 1 1 13.3142 3.63089 1.48899
30 1 1 13.59 6.53166 0.171351
7665 1 1 15.2716 2.39555 1.14921
1640 1 1 16.4945 3.12553 0.55237
7721 1 1 16.8638 5.0425 36.8671
1636 1 1 18.236 4.58245 1.31659
7754 1 1 0.195379 5.43602 1.89439
1751 1 1 18.651 7.91189 37.3866
1806 1 1 18.1898 6.8087 36.7978
81 1 1 2.03691 5.77918 0.19284
1290 1 1 4.74239 5.31007 0.662138
10 1 1 4.47807 8.66041 1.68093
569 1 1 4.88809 6.44748 0.262228
60 1 1 7.13802 7.26607 0.569626
7002 1 1 8.84671 6.74787 37.3784
102 1 1 7.20866 6.48475 2.98467
537 1 1 10.7408 4.09649 0.997576
6659 1 1 10.617 6.49983 2.09658
538 1 1 12.8152 6.76697 2.42879
7071 1 1 11.2143 5.94349 1.43015
505 1 1 15.0206 5.12046 1.98176
1441 1 1 14.2233 6.18222 1.0273
554 1 1 15.4328 3.31797 1.64021
1473 1 1 14.7679 6.6248 1.82081
519 1 1 14.6869 6.30926 37.0108
626 1 1 16.9431 7.1884 36.6045
1314 1 1 1.44679 8.34065 2.22268
164 1 1 1.49481 8.17981 37.3778
158 1 1 0.685396 8.60481 0.462552
7648 1 1 1.83547 7.42044 2.16096
1041 1 1 3.66488 7.76106 36.0439
930 1 1 7.92862 6.66717 0.482596
1026 1 1 7.01316 8.97113 35.9761
1337 1 1 5.43542 9.24654 1.50126
138 1 1 6.64646 8.68826 0.866234
177 1 1 8.48272 8.66257 2.25263
7743 1 1 7.89292 9.83045 2.29939
133 1 1 9.85607 9.74893 1.75583
107 1 1 10.5358 6.11703 0.0832759
142 1 1 14.559 7.67533 0.0431339
144 1 1 13.479 8.27011 0.192413
1359 1 1 12.29 7.93057 0.99064
1038 1 1 13.0952 7.3195 37.2032
2153 1 1 13.3506 5.39743 0.900158
7444 1 1 15.8034 6.9002 1.97085
281 1 1 14.5785 5.4887 0.00981404
193 1 1 17.8181 7.85444 36.5365
7800 1 1 17.4555 7.51392 37.5182
191 1 1 1.58719 10.1054 1.00609
202 1 1 2.94064 10.7612 2.17524
7718 1 1 2.83898 8.84909 0.809328
153 1 1 3.80865 7.69313 1.57737
222 1 1 2.80598 9.40305 2.44097
7847 1 1 4.39349 8.67374 0.20365
564 1 1 4.45215 11.1925 2.23897
647 1 1 5.13754 10.0756 3.12424
541 1 1 5.19072 8.22603 0.969615
95 1 1 7.86158 9.56416 1.27045
582 1 1 9.93735 8.91067 2.25466
1020 1 1 10.8722 7.57987 1.97787
7788 1 1 9.10671 7.86655 2.79875
91 1 1 10.896 7.67759 0.698735
333 1 1 11.2914 8.57322 36.8436
74 1 1 13.5155 10.1099 0.187001
7780 1 1 14.0648 8.07062 35.3117
6997 1 1 16.129 11.2551 2.41199
1350 1 1 16.8573 8.9897 2.19172
238 1 1 18.114 8.5758 1.03924
349 1 1 17.3937 9.15107 37.4296
6683 1 1 2.2003 12.2464 0.851586
6972 1 1 18.5113 11.2011 1.33211
1003 1 1 3.06026 9.85952 1.26847
300 1 1 3.59862 11.9375 2.4654
7812 1 1 3.96917 9.76362 0.381956
2373 1 1 3.83487 9.35095 1.56995
645 1 1 6.46988 10.8382 36.4162
7579 1 1 6.3369 11.015 2.56657
573 1 1 4.45381 10.2034 0.997643
357 1 1 6.26955 11.0487 1.05565
615 1 1 8.79708 9.80969 1.05795
7538 1 1 10.373 10.9983 0.782427
1790 1 1 11.7027 10.6691 1.71014
6316 1 1 13.0733 10.2445 2.0442
7468 1 1 10.9003 9.23529 0.077862
1430 1 1 12.9592 8.78539 36.9777
2234 1 1 14.2963 9.35021 37.5972
1036 1 1 13.6565 9.39275 1.11456
235 1 1 14.5541 10.7823 2.60274
7440 1 1 15.1988 8.48563 37.5397
6599 1 1 15.1311 11.6049 1.7619
200 1 1 17.0367 9.59339 1.20962
4 1 1 18.1895 10.1109 0.3509
311 1 1 1.61264 13.2124 37.1172
146 1 1 16.2097 8.44902 1.66296
962 1 1 0.805335 11.9594 0.405631
7479 1 1 1.2405 13.4009 0.608375
243 1 1 3.73635 11.8327 37.5352
7897 1 1 1.30569 12.3948 1.76049
203 1 1 3.63174 12.5958 0.828317
7817 1 1 2.19825 11.2576 0.887019
290 1 1 4.81868 14.111 1.78289
2177 1 1 5.49676 10.8871 37.1289
526 1 1 5.44343 12.6911 1.80195
7936 1 1 5.06092 12.0771 0.398251
7891 1 1 6.38331 11.3318 37.5759
1509 1 1 6.82303 12.8367 37.2176
699 1 1 10.9248 11.4839 1.52236
2244 1 1 12.5561 12.4092 2.62111
7461 1 1 12.4642 10.4765 0.262157
1100 1 1 12.2063 12.2246 1.24276
683 1 1 14.3064 10.7197 1.1674
1368 1 1 17.9409 11.8876 36.3481
7834 1 1 15.0647 11.2139 0.418329
1108 1 1 18.509 13.7061 1.47107
165 1 1 17.6416 13.0138 0.821474
7451 1 1 17.5841 14.4814 0.200015
7086 1 1 2.91798 13.3072 1.00346
246 1 1 2.78309 11.997 36.9723
7581 1 1 2.60711 12.7328 0.143998
7953 1 1 6.53901 13.3172 1.67425
1102 1 1 5.14012 12.9829 37.3617
1010 1 1 5.40301 14.0287 2.79144
287 1 1 6.15593 14.9865 0.817238
1070 1 1 10.9977 13.5775 1.72984
7610 1 1 7.44051 15.4585 0.548357
768 1 1 8.40807 15.2976 35.9938
1501 1 1 13.48 15.896 37.1149
1069 1 1 11.6197 12.8913 2.20861
7464 1 1 12.5145 13.7896 37.5626
7516 1 1 11.9172 13.2408 1.03044
7452 1 1 12.6056 14.1326 1.20043
7189 1 1 16.9554 13.6763 0.414182
6563 1 1 16.3953 14.2445 2.58059
1484 1 1 0.743284 13.3413 36.5884
310 1 1 0.577399 16.8574 1.01409
609 1 1 2.30633 15.1644 37.529
6379 1 1 3.19438 13.8572 2.88619
7180 1 1 4.35627 14.5228 37.6296
627 1 1 4.11468 14.3173 2.66792
7535 1 1 5.38832 15.8995 1.02749
7555 1 1 5.16692 15.3302 0.162691
229 1 1 7.28341 15.4673 1.56794
6411 1 1 4.91284 15.2271 2.72506
7613 1 1 9.98139 15.8801 1.8735
1908 1 1 9.24771 14.6952 1.27675
725 1 1 8.08485 15.3835 37.1108
7504 1 1 14.2336 16.4473 0.595812
259 1 1 13.7365 15.8562 1.20868
798 1 1 14.3509 16.3173 36.7396
7872 1 1 15.2973 15.1009 2.99839
7443 1 1 14.6122 17.4807 1.60319
1199 1 1 17.6758 15.6453 37.1116
7844 1 1 17.2756 16.6678 1.77631
6634 1 1 17.1342 14.2465 1.3975
753 1 1 18.3079 14.6103 1.13586
1997 1 1 16.8882 15.6554 1.24282
105 1 1 2.33226 16.9878 0.354887
7561 1 1 1.51972 17.2852 36.7702
7957 1 1 0.634445 17.0629 0.0498283
873 1 1 1.79184 14.5282 36.8823
7964 1 1 2.76243 16.5736 2.40001
7119 1 1 3.83738 17.9301 1.27574
7701 1 1 5.51841 15.0932 2.00062
340 1 1 5.52778 16.2779 37.3274
1172 1 1 5.50177 15.0477 36.2538
7975 1 1 7.23287 16.4738 36.4329
738 1 1 7.18439 16.6167 1.67701
286 1 1 8.59631 14.7194 0.11479
700 1 1 10.5756 18.2557 1.65048
1170 1 1 9.7595 15.1791 0.457618
7994 1 1 12.4655 17.2363 1.18813
1506 1 1 10.7145 14.1985 2.93057
7230 1 1 15.4203 16.8323 0.816252
6750 1 1 14.0594 16.6314 2.06063
837 1 1 16.104 17.6989 1.68735
677 1 1 14.9657 15.7936 36.1511
6674 1 1 0.105409 16.7824 2.10436
1713 1 1 1.83942 16.7436 1.61549
547 1 1 3.92526 1.04822 1.64447
6753 1 1 3.40016 17.6033 35.3034
7562 1 1 4.12737 18.7135 3.52462
399 1 1 2.70912 0.599618 36.6517
889 1 1 4.73644 17.7088 36.8652
6673 1 1 5.92364 0.867272 1.61547
7585 1 1 6.46844 18.511 1.68785
7620 1 1 11.6325 18.331 1.15733
419 1 1 10.4198 16.4105 0.083594
7210 1 1 5.6473 18.001 3.25534
11 1 1 13.1081 18.6746 0.775435
6832 1 1 13.6578 0.686683 1.53441
22 1 1 15.0339 18.7341 0.777237
1146 1 1 18.1669 17.5237 35.9778
7547 1 1 16.7336 0.118429 0.899254
784 1 1 16.7871 16.0442 0.0850579
73 1 1 17.9366 0.108959 37.5174
278 1 1 17.993 17.5906 37.3287
8000 1 1 0.995198 17.8386 0.600712
1200 1 1 18.2486 1.27386 3.85142
402 1 1 2.8039 1.42473 1.00875
1198 1 1 2.18749 0.529619 2.98263
43 1 1 5.83851 0.238256 3.46404
1168 1 1 4.95849 0.411923 1.33649
428 1 1 4.66018 17.2487 1.33563
7532 1 1 6.17645 1.64783 2.30772
496 1 1 7.18119 18.0164 2.6138
855 1 1 6.83003 18.7747 0.611129
1582 1 1 9.42022 17.5882 3.88872
504 1 1 8.31179 0.92913 4.58748
764 1 1 9.23115 0.994422 0.0973567
814 1 1 9.67646 18.7488 2.54367
838 1 1 12.5089 0.635886 2.41811
7779 1 1 13.1663 1.89625 3.97635
7155 1 1 13.3473 1.49296 3.1247
427 1 1 14.2117 0.715349 2.74692
422 1 1 16.047 0.535996 2.06915
7478 1 1 15.2481 2.08165 3.33229
151 1 1 16.9864 1.59666 2.97244
430 1 1 0.399617 1.55332 2.52676
2134 1 1 0.77866 18.5536 1.67744
96 1 1 2.95395 2.28062 1.9678
843 1 1 1.24459 1.0862 2.88867
1239 1 1 4.31779 2.1581 2.52044
38 1 1 5.49231 1.19924 3.4795
1461 1 1 6.62571 0.84777 2.76108
130 1 1 5.50622 2.82502 3.98582
765 1 1 7.4707 18.3334 1.60363
7656 1 1 10.0694 1.90374 3.99509
421 1 1 11.3799 0.516843 1.59491
7619 1 1 10.3196 2.9545 4.0033
500 1 1 11.9919 2.08068 0.901358
1196 1 1 11.8001 2.68875 2.18965
1270 1 1 13.1539 1.69526 1.95468
1315 1 1 13.7217 2.63025 3.45972
7708 1 1 15.3706 1.28616 1.05709
1143 1 1 14.7984 0.361988 1.83337
2029 1 1 17.9918 1.84038 2.69008
356 1 1 17.64 4.30683 37.5
2159 1 1 18.2447 0.287181 0.886265
7950 1 1 1.2245 1.11584 1.58067
155 1 1 1.43941 3.75757 1.91317
109 1 1 2.05394 2.88241 2.76773
7996 1 1 3.49381 5.19035 3.68088
7280 1 1 5.62827 4.41844 2.7572
239 1 1 6.40861 4.79439 2.05144
37 1 1 4.89361 2.0913 3.26647
376 1 1 8.05125 3.93593 3.1859
1206 1 1 7.62064 1.47284 3.55254
611 1 1 7.35513 2.51337 2.55632
1333 1 1 6.26791 1.81136 3.82717
1687 1 1 8.43561 4.75681 0.842851
946 1 1 10.2265 2.70181 2.76848
7997 1 1 8.6055 3.40437 3.76884
824 1 1 11.6577 3.34871 1.15312
461 1 1 12.144 4.29208 1.92713
616 1 1 11.0648 3.37706 2.45731
7855 1 1 12.9736 2.97654 2.43751
543 1 1 14.3322 2.84628 1.5773
1229 1 1 15.0586 3.37693 2.70677
508 1 1 17.2051 4.39889 1.04774
786 1 1 17.5984 2.13532 0.405651
552 1 1 16.4036 3.61483 2.14102
65 1 1 16.9862 4.75508 3.44528
420 1 1 17.8142 2.75002 1.82933
2197 1 1 16.9709 5.77172 1.00867
34 1 1 0.108509 3.22555 1.64121
7647 1 1 2.17323 5.93531 2.33917
450 1 1 2.79168 4.63383 4.26462
209 1 1 6.06088 3.79783 1.26763
1776 1 1 5.75567 5.72056 0.690068
926 1 1 5.68189 5.79846 1.75477
455 1 1 6.45654 4.60039 3.36167
566 1 1 7.12105 4.06579 2.57598
7762 1 1 7.95426 5.59419 1.36085
581 1 1 9.73087 5.20947 0.588732
180 1 1 10.8984 5.54628 2.3304
224 1 1 11.1848 4.79454 1.76273
1701 1 1 10.0761 5.37053 1.51515
909 1 1 9.50278 7.14183 36.4533
32 1 1 12.0798 3.39987 3.0847
591 1 1 13.7159 5.10084 3.32354
156 1 1 13.6438 7.07128 2.83252
470 1 1 14.7174 5.05642 4.40054
908 1 1 14.922 4.85227 0.82765
1238 1 1 15.3115 6.36163 0.810243
7756 1 1 16.5479 6.7986 0.154483
7601 1 1 17.7433 3.87524 2.20423
1717 1 1 1.12982 6.26693 2.57912
1318 1 1 18.6786 7.82922 0.957196
2110 1 1 0.917571 6.53055 1.1611
478 1 1 2.95244 7.14169 1.5293
580 1 1 1.58076 7.20445 4.55735
848 1 1 1.4912 7.68441 3.31984
475 1 1 3.9901 5.96591 1.20722
7643 1 1 3.53885 6.8159 0.74385
1488 1 1 3.20498 5.49781 2.1853
1369 1 1 5.15289 7.00382 2.39162
488 1 1 7.15951 7.01544 1.54815
637 1 1 5.29844 8.16579 2.54897
454 1 1 6.36222 5.75874 2.60065
7748 1 1 6.52632 6.52642 3.81105
932 1 1 7.08472 8.59043 2.58124
497 1 1 8.95746 5.13684 1.68841
231 1 1 13.1519 6.32183 3.69476
862 1 1 11.3665 4.9694 4.53436
978 1 1 14.5722 7.40329 3.13404
7827 1 1 14.0427 5.47112 2.03797
2160 1 1 16.119 4.63137 2.00193
7603 1 1 16.7149 7.35622 4.28698
6875 1 1 16.7338 6.25052 2.66989
474 1 1 17.8268 6.56926 0.265907
362 1 1 0.465207 8.14056 4.33046
45 1 1 2.63072 8.32982 3.16099
98 1 1 1.75353 7.05985 1.07712
1766 1 1 3.43394 8.55961 2.3021
1366 1 1 5.4998 9.15185 2.51136
6896 1 1 4.7873 6.822 1.4124
1917 1 1 3.31949 8.29542 37.0073
1417 1 1 6.32322 10.1587 0.116699
53 1 1 7.47849 9.41732 3.33804
539 1 1 7.98047 8.01734 3.79563
7659 1 1 7.92026 7.06728 2.47662
1044 1 1 9.98347 7.30557 2.81598
570 1 1 8.23089 7.51228 1.25593
498 1 1 13.7085 7.00318 1.7493
1422 1 1 13.0699 8.73704 1.75532
1039 1 1 11.2547 6.26123 3.99627
188 1 1 14.9411 8.78878 1.73889
1000 1 1 14.4429 7.75163 1.56017
159 1 1 13.2596 7.96055 3.73269
1033 1 1 14.4963 8.93937 3.46518
7397 1 1 15.5872 6.67277 2.94231
1443 1 1 16.6436 7.20966 2.96357
1316 1 1 17.4777 6.35569 1.69638
162 1 1 16.1916 8.36594 2.96994
959 1 1 17.7086 8.01438 1.87959
7525 1 1 1.26765 9.42637 2.33986
206 1 1 1.02766 9.22247 1.39969
1852 1 1 0.550738 7.88292 2.87161
7841 1 1 2.53013 8.25819 1.81092
175 1 1 2.04625 10.1169 2.15981
201 1 1 3.57731 11.4834 3.53733
983 1 1 2.03443 9.16656 2.98366
1048 1 1 5.21991 10.2351 1.88167
571 1 1 4.48071 9.47263 2.41046
1089 1 1 6.12831 8.86798 4.26074
653 1 1 7.04129 9.85359 1.76501
7862 1 1 6.0132 9.88856 1.00802
1420 1 1 8.09748 9.83386 4.17068
973 1 1 8.80101 9.45996 2.82982
228 1 1 11.3676 6.53882 2.78755
575 1 1 11.1286 7.73837 4.04345
7904 1 1 12.4219 7.57424 3.28267
636 1 1 12.3139 7.90089 2.23672
2154 1 1 15.7018 9.99555 1.14414
7758 1 1 16.8034 7.30129 1.9749
1718 1 1 15.576 7.66138 0.532101
1396 1 1 15.3194 8.16414 2.42804
84 1 1 17.0281 9.32646 3.44267
308 1 1 0.349669 8.58017 1.63985
1005 1 1 2.39411 10.2575 3.28089
195 1 1 0.599271 10.1049 1.84886
1282 1 1 0.213829 12.7117 1.41166
154 1 1 3.78451 10.2958 3.12769
685 1 1 5.40552 10.5235 4.16674
1820 1 1 5.08566 11.8509 3.10304
2215 1 1 6.77055 12.3921 1.02809
7334 1 1 7.54206 11.6027 0.359815
7822 1 1 9.80761 10.9526 3.47933
232 1 1 11.1914 10.409 2.68157
1532 1 1 9.36233 8.087 1.84272
1983 1 1 12.7588 8.83504 2.76331
602 1 1 12.8787 10.0657 3.25712
276 1 1 13.9489 10.728 3.79179
1074 1 1 13.7451 11.1216 2.23501
7428 1 1 14.9149 9.77014 3.01906
240 1 1 14.3495 12.471 1.99853
7480 1 1 16.3201 9.84064 2.57589
877 1 1 17.0669 10.9447 2.57852
444 1 1 18.4642 9.82945 2.76454
237 1 1 17.5454 11.7397 1.36574
669 1 1 17.4448 9.94849 2.22403
648 1 1 1.15063 10.3591 3.0551
1173 1 1 1.96069 15.0058 1.14849
1486 1 1 2.16105 11.5062 1.8499
342 1 1 6.31629 12.2927 2.62693
7536 1 1 6.9925 13.4442 0.591987
1135 1 1 8.30729 13.6214 37.4923
691 1 1 8.19254 12.9646 0.694866
225 1 1 10.0705 13.3935 0.611318
253 1 1 8.96857 11.4982 4.56365
1103 1 1 11.8283 12.0506 3.38243
574 1 1 11.8478 11.2763 2.84208
7893 1 1 13.5757 13.7696 0.760299
1533 1 1 12.2277 13.3725 3.05431
610 1 1 12.4861 11.2438 1.48095
1825 1 1 14.5531 12.2038 0.971193
1073 1 1 16.0799 12.1461 1.7912
967 1 1 18.2498 11.7957 2.3331
667 1 1 17.4082 13.4517 3.60472
597 1 1 16.853 12.8529 1.43129
204 1 1 0.716703 14.1417 3.56965
7052 1 1 18.334 13.4237 0.0992901
1078 1 1 2.24986 13.5296 2.41663
1529 1 1 2.35031 12.887 3.52023
125 1 1 2.93762 12.8248 1.93563
7888 1 1 0.64946 14.3875 1.19384
1136 1 1 7.23713 14.9671 2.58228
255 1 1 5.33195 13.8258 0.371105
704 1 1 3.9753 13.4207 1.80152
690 1 1 7.57985 13.748 1.53766
1017 1 1 8.42712 11.8515 1.11847
16 1 1 8.64504 11.8296 2.10038
344 1 1 11.0584 13.1707 0.204245
304 1 1 9.58392 12.8423 2.6648
379 1 1 12.6958 13.1935 1.77349
1153 1 1 13.9361 13.5329 2.08484
878 1 1 13.7017 12.3918 3.00571
273 1 1 14.5137 13.1178 2.9526
1537 1 1 15.3817 12.4063 2.61081
990 1 1 17.6761 12.9566 2.32257
1042 1 1 17.9855 13.9239 2.71904
7993 1 1 16.7432 14.7837 37.1493
85 1 1 2.00157 13.2362 1.37055
2367 1 1 0.218468 15.2568 1.55702
755 1 1 4.91751 14.3362 3.73526
693 1 1 2.96988 15.2356 1.72333
7123 1 1 4.60041 15.6996 3.52103
374 1 1 6.01611 15.7696 2.59985
773 1 1 6.35642 14.5157 1.96351
2343 1 1 8.76364 14.3716 36.4856
687 1 1 9.28931 15.0739 2.95906
1573 1 1 10.5406 14.4253 0.610698
2661 1 1 10.224 14.3863 1.99481
7945 1 1 11.5894 14.5458 0.76825
31 1 1 12.0437 16.2933 2.32665
2062 1 1 10.188 15.127 3.63277
433 1 1 14.0968 15.0066 2.77661
1187 1 1 11.8145 14.0905 2.21424
7147 1 1 15.0477 16.2107 3.29766
790 1 1 14.7133 13.4738 1.1896
629 1 1 17.4661 15.3056 2.1323
7903 1 1 16.0659 15.3286 2.02505
1561 1 1 18.2557 15.9282 1.92278
2037 1 1 18.3205 14.8818 3.57786
439 1 1 4.37594 15.0548 1.78753
1446 1 1 3.67656 15.418 2.94555
643 1 1 3.44893 14.4207 1.96462
7455 1 1 4.63191 16.1279 1.62691
1453 1 1 6.046 16.5971 1.92531
370 1 1 5.14127 16.9146 2.97735
1133 1 1 8.74566 18.1979 1.58729
1485 1 1 6.79132 17.7153 0.085419
1131 1 1 6.39371 17.5771 2.48701
1134 1 1 9.80665 17.812 36.8735
7980 1 1 9.05441 16.0909 1.19739
7901 1 1 7.49782 14.2674 5.60466
416 1 1 9.70107 16.7383 4.44753
740 1 1 10.7997 18.3344 3.36391
7838 1 1 11.6628 16.5511 0.65211
982 1 1 13.4199 15.311 2.07675
64 1 1 12.7189 14.2416 3.22064
1107 1 1 12.9591 15.2547 3.24004
7040 1 1 13.7476 18.4173 1.78492
670 1 1 16.8167 15.7366 4.76242
1469 1 1 15.8667 15.3767 37.55
282 1 1 18.7335 17.1217 3.53677
398 1 1 18.6704 0.945136 1.86467
899 1 1 2.99435 17.0087 1.13146
7926 1 1 4.33578 0.455263 0.218292
727 1 1 3.27046 18.7558 2.56318
293 1 1 4.11234 18.786 1.67189
207 1 1 5.34219 17.6778 2.16658
363 1 1 6.24081 17.3901 4.08438
726 1 1 10.308 17.0518 2.08647
292 1 1 7.98918 1.01246 1.28037
377 1 1 9.91078 18.5493 0.818905
781 1 1 11.372 0.314287 2.73319
7550 1 1 12.5968 18.3471 2.60401
1250 1 1 13.3986 16.204 2.81127
375 1 1 13.3678 17.4471 2.45261
391 1 1 11.3085 17.7484 37.2568
754 1 1 14.669 17.421 3.91311
7987 1 1 15.3912 18.7655 2.86809
1272 1 1 15.0514 17.823 2.58445
465 1 1 14.4768 18.6023 3.38097
1474 1 1 18.1158 17.5661 2.05901
1590 1 1 16.9746 18.2614 2.23713
7560 1 1 18.0673 18.1365 0.598941
40 1 1 0.242436 17.785 1.51538
115 1 1 3.08621 0.304926 4.59603
7651 1 1 2.35043 1.18398 3.99501
816 1 1 3.013 17.213 5.04109
7848 1 1 3.10549 2.10002 3.14913
7678 1 1 3.78619 0.852014 3.74837
487 1 1 7.19413 0.500911 2.02764
937 1 1 7.65915 18.0201 4.66955
1584 1 1 7.71191 17.208 2.94123
1094 1 1 7.35992 17.703 3.72533
7 1 1 11.6492 1.17194 3.24003
7984 1 1 11.0381 17.3747 3.9316
501 1 1 12.3753 1.17768 4.03026
7911 1 1 12.3685 1.99433 3.24173
7990 1 1 13.5 18.2173 4.13314
139 1 1 17.6843 3.08006 4.51811
382 1 1 14.61 0.443829 4.46873
2033 1 1 18.2443 18.0995 5.76321
7887 1 1 16.0161 1.25436 3.58379
1110 1 1 17.279 0.298438 1.77669
7992 1 1 0.0851538 0.0853708 3.93542
1481 1 1 0.174038 0.450081 2.96451
800 1 1 0.656674 1.99622 3.59557
917 1 1 3.77449 2.69838 5.94954
47 1 1 2.5558 5.11661 3.28128
728 1 1 0.651784 0.910392 3.81759
321 1 1 3.67735 3.67798 1.92832
841 1 1 5.59405 0.139755 2.28865
7253 1 1 6.29012 2.37441 6.06088
7896 1 1 5.00094 1.1438 2.47598
7616 1 1 8.3774 0.544995 3.6928
520 1 1 5.56781 3.22004 5.79577
7296 1 1 6.6838 1.64928 4.88611
41 1 1 9.93026 18.4803 3.6926
863 1 1 9.32788 0.273091 5.69553
829 1 1 8.0268 2.37692 4.01745
553 1 1 10.5622 1.50681 4.78177
2232 1 1 12.5353 3.74297 4.09544
7856 1 1 11.1756 1.8235 3.90826
2038 1 1 14.1772 1.92728 4.10561
1223 1 1 12.0496 2.22835 4.68867
1540 1 1 15.3301 3.34767 3.83181
780 1 1 15.8735 2.75524 2.96178
1554 1 1 17.17 2.57768 2.56948
7638 1 1 18.1066 3.66098 3.77602
7228 1 1 1.11632 4.71949 4.17804
1158 1 1 1.47424 5.59734 3.298
7661 1 1 4.57998 3.08088 3.6418
7715 1 1 2.46567 3.44036 1.89085
1327 1 1 5.41437 3.95672 3.65636
7685 1 1 7.26149 0.552359 4.43465
1216 1 1 7.07924 2.87048 4.36248
2136 1 1 6.43023 3.57959 3.23638
886 1 1 9.35068 1.2291 3.12363
1336 1 1 8.44171 4.35902 4.14363
7700 1 1 8.15864 4.53046 1.97817
876 1 1 10.1634 3.40461 5.27485
588 1 1 10.3541 4.40848 3.98016
2150 1 1 11.43 2.84543 3.64395
2103 1 1 9.89577 3.71395 2.13919
147 1 1 11.0689 3.78437 3.58894
1597 1 1 13.2484 4.81755 2.43065
2099 1 1 14.7212 4.16264 3.34104
1269 1 1 13.1035 2.83961 4.25905
1037 1 1 16.2375 3.41638 4.47415
514 1 1 13.7289 3.7452 4.3737
432 1 1 15.0389 2.25963 2.06659
1231 1 1 17.3661 6.05407 4.23019
483 1 1 17.836 4.47613 4.5215
364 1 1 18.7638 3.56589 5.25666
910 1 1 0.129681 4.15336 2.44224
6804 1 1 0.00626076 5.1233 3.92033
489 1 1 0.532205 7.35085 1.9358
35 1 1 2.25652 5.14461 1.20244
884 1 1 2.07554 6.82527 3.55866
7607 1 1 1.88963 4.10517 4.64504
1280 1 1 3.75197 4.06339 4.995
528 1 1 5.69995 5.2239 3.44359
767 1 1 4.86175 3.224 2.71
1381 1 1 7.45711 5.41708 2.61548
1296 1 1 8.72491 5.72801 4.24071
587 1 1 8.29848 6.15142 2.95607
1331 1 1 8.1102 5.13001 3.47777
2126 1 1 12.6989 5.80334 5.15315
576 1 1 10.6415 5.41872 3.56941
217 1 1 9.08642 4.15927 2.6345
387 1 1 12.6866 5.07311 3.24657
1265 1 1 13.7729 4.48034 1.5347
1377 1 1 13.7249 5.24841 4.30231
1670 1 1 16.6533 5.37274 4.98052
954 1 1 15.8348 4.14937 3.00091
1202 1 1 15.0819 4.64624 5.27052
68 1 1 15.9018 5.499 2.62227
525 1 1 15.9325 5.54695 3.71846
481 1 1 16.0108 6.64144 3.82006
112 1 1 18.1976 5.41272 5.07988
1194 1 1 18.4297 5.07999 2.87108
1241 1 1 0.124281 7.09819 3.49249
7931 1 1 0.00827927 6.47756 4.61251
2357 1 1 3.19864 5.98296 3.19365
966 1 1 5.05212 5.95389 2.83629
7823 1 1 3.045 7.61044 2.60322
1885 1 1 4.54611 4.53101 3.31113
1051 1 1 5.39382 6.21347 3.76807
1098 1 1 7.00551 6.14302 5.48489
555 1 1 9.69355 6.01712 4.50802
446 1 1 10.3073 4.28343 2.90139
1378 1 1 9.31301 5.26168 2.77266
1222 1 1 10.878 6.98074 4.82484
7432 1 1 15.0086 5.87538 2.62024
948 1 1 13.2424 3.73362 3.24582
606 1 1 13.3612 6.39285 6.02144
1360 1 1 18.0757 7.383 2.99489
1648 1 1 17.3825 8.15475 4.51808
1968 1 1 16.8149 8.06197 5.59853
1355 1 1 18.3447 6.90432 5.46695
522 1 1 1.61057 8.39537 4.15174
441 1 1 1.45808 9.57571 3.7067
2071 1 1 1.94027 6.31227 5.06134
560 1 1 17.6127 6.41711 3.37987
1409 1 1 3.74903 7.59589 3.41086
568 1 1 5.01724 7.42831 3.43555
90 1 1 4.19248 7.33058 4.63109
1262 1 1 4.38336 8.59807 2.97535
1376 1 1 6.99355 7.71464 3.94382
7843 1 1 5.62289 8.37594 3.46819
1344 1 1 8.67034 7.32387 4.10407
988 1 1 10.2055 7.30024 3.89329
865 1 1 9.08782 6.9997 1.87391
140 1 1 11.7635 5.50357 3.36892
173 1 1 9.4081 6.03864 2.06255
462 1 1 12.0438 8.26712 4.11725
649 1 1 12.3442 5.29226 4.41369
160 1 1 13.6661 7.25088 4.24942
556 1 1 15.2303 8.05612 4.18601
7804 1 1 15.2556 7.43761 5.32694
996 1 1 17.6641 7.01551 4.43794
557 1 1 18.3571 8.91239 2.34089
393 1 1 1.2691 11.4239 2.59524
7928 1 1 2.28386 9.60126 4.64479
7322 1 1 4.26851 10.1849 3.97361
1365 1 1 3.00472 8.79293 4.22346
1287 1 1 4.41325 8.33411 4.23576
7806 1 1 6.25466 9.49889 3.32578
315 1 1 6.11551 11.3484 3.65061
358 1 1 6.39822 9.15447 2.03068
1482 1 1 7.07189 11.6641 3.15115
1724 1 1 8.30667 8.00377 4.76696
2338 1 1 8.77785 10.048 5.03615
618 1 1 10.0688 10.067 4.19595
7377 1 1 9.72885 11.2351 6.10402
1105 1 1 11.2099 10.0447 6.04515
593 1 1 9.34427 8.13863 4.34455
1826 1 1 11.0988 8.65444 3.44872
211 1 1 11.2098 7.88965 5.23581
1072 1 1 12.03 9.33979 1.74245
1478 1 1 13.8453 8.47873 2.46988
7395 1 1 15.0747 8.75915 5.18559
108 1 1 12.8204 9.05645 3.88287
1637 1 1 17.1938 8.17342 3.33997
7880 1 1 18.0385 10.0768 4.35382
1439 1 1 -0.0285816 9.21141 3.6895
997 1 1 18.1481 8.24485 3.59389
327 1 1 0.797757 11.4731 1.49964
7791 1 1 2.95793 11.3451 4.48597
925 1 1 5.40374 9.62016 5.08702
7482 1 1 3.49936 9.43088 3.36555
2122 1 1 4.09649 12.3118 3.46179
1008 1 1 6.08885 12.2106 3.87859
586 1 1 6.70006 10.4884 3.93199
1049 1 1 8.29239 12.0789 4.95093
2305 1 1 8.74807 10.6048 4.04851
536 1 1 10.1828 9.96282 2.79041
492 1 1 8.29948 10.5112 2.96513
1984 1 1 7.44392 11.1369 1.62535
213 1 1 10.9479 10.0435 3.70406
1939 1 1 10.737 10.2246 4.98907
638 1 1 13.7675 9.75123 3.55977
1822 1 1 11.852 10.2917 5.07366
955 1 1 12.6698 11.4518 4.09031
600 1 1 12.8413 11.1048 2.6607
1113 1 1 16.2473 8.52833 3.98906
1631 1 1 14.6701 10.2211 5.19633
642 1 1 16.9135 9.59189 5.77397
757 1 1 18.8099 10.8838 2.69167
2320 1 1 16.5276 10.0173 4.66441
6569 1 1 17.9824 9.4264 5.8449
1128 1 1 0.778473 10.9878 5.1061
1427 1 1 0.0341142 12.4609 3.7592
1878 1 1 0.641266 12.185 2.83019
1411 1 1 2.01885 13.9382 3.43647
1450 1 1 4.22325 13.1454 2.8319
1093 1 1 3.94166 11.8927 4.40132
216 1 1 4.67647 13.8911 4.72307
1357 1 1 8.07915 11.302 3.84624
1476 1 1 6.66582 13.1951 3.70772
1112 1 1 7.0459 10.2846 2.83258
277 1 1 9.64525 13.2672 1.57192
424 1 1 9.06492 11.2633 2.86262
7829 1 1 11.3709 14.2735 5.56861
1507 1 1 15.3797 11.0346 4.50773
271 1 1 14.359 11.934 3.73331
7811 1 1 13.3887 12.0394 1.70323
991 1 1 13.9096 13.6922 3.91222
1942 1 1 15.3305 11.5726 3.60231
639 1 1 16.7879 10.5008 3.41002
1046 1 1 15.6139 13.048 3.43409
712 1 1 17.4459 11.3142 3.85161
251 1 1 0.666895 12.5004 4.77922
1077 1 1 16.8857 12.1488 3.24495
1596 1 1 18.7655 10.7673 4.21325
7403 1 1 1.02155 13.3828 1.89958
7921 1 1 2.07193 12.3359 2.63801
7835 1 1 2.95344 14.2172 4.77316
350 1 1 1.59644 14.7819 3.3835
1082 1 1 3.70661 14.5695 3.58578
7503 1 1 5.90587 15.0764 3.26118
1504 1 1 5.28992 13.4222 3.63119
7487 1 1 6.21168 13.3339 2.74881
7784 1 1 6.06213 14.1283 4.24845
584 1 1 8.20943 15.2648 1.093
1175 1 1 7.19569 13.8476 2.61421
227 1 1 8.93659 13.5305 0.862549
1906 1 1 10.3732 12.5178 1.65212
1657 1 1 8.65139 12.3314 3.73702
628 1 1 13.5384 12.7505 4.11012
678 1 1 13.586 13.2574 5.29248
6719 1 1 16.4921 12.9441 2.43514
1120 1 1 17.3516 14.6988 3.37811
7515 1 1 0.0425771 14.4376 2.46611
1389 1 1 0.0586117 13.037 2.34878
7870 1 1 0.793977 16.3379 3.85827
688 1 1 1.09854 14.5336 2.21658
724 1 1 0.95743 15.4785 2.77407
7602 1 1 3.69332 16.4926 5.33389
1145 1 1 3.89598 13.623 6.36132
1550 1 1 4.36686 15.5263 5.82072
1217 1 1 6.03861 15.1143 4.23994
1301 1 1 5.07114 14.8851 4.69233
7531 1 1 8.91329 14.4149 2.24763
2017 1 1 9.00866 14.261 3.97836
1139 1 1 9.68473 13.8689 2.7851
736 1 1 10.0467 12.053 5.0918
381 1 1 10.6374 13.0294 2.77463
19 1 1 11.3031 15.6231 3.90517
1184 1 1 11.3642 13.1281 5.06564
1432 1 1 12.1389 14.5749 4.13311
317 1 1 12.42 16.7936 4.07288
1151 1 1 15.4892 13.5676 2.28646
320 1 1 14.7207 15.0411 4.4899
7923 1 1 15.8435 15.3096 4.22489
234 1 1 16.4351 15.2115 3.25506
2351 1 1 15.8536 14.9544 5.37092
663 1 1 17.6463 15.7606 3.47956
1445 1 1 17.6215 14.3817 4.47703
1567 1 1 17.7055 15.4092 4.43981
7968 1 1 18.5885 15.9408 3.01017
812 1 1 1.45808 17.2017 4.06028
888 1 1 2.5898 17.7927 2.80434
1156 1 1 2.95948 16.0048 3.74237
331 1 1 3.91188 16.5334 2.98978
336 1 1 3.99481 16.5579 4.14031
2837 1 1 3.31637 15.1126 4.84556
1211 1 1 7.32849 16.2434 3.31792
1179 1 1 5.02703 16.9658 4.199
423 1 1 8.31897 16.4567 2.29474
1530 1 1 7.16054 13.1992 4.64679
27 1 1 9.93262 16.8377 5.78582
411 1 1 10.7917 15.9462 2.6366
1541 1 1 12.7873 0.131993 3.796
7508 1 1 13.5766 18.6891 2.78675
766 1 1 11.5117 15.2739 6.20982
316 1 1 11.6903 16.5578 6.3381
6720 1 1 11.3723 15.1568 2.91496
1147 1 1 12.6002 17.8748 3.61882
7551 1 1 14.1793 17.4704 2.949
328 1 1 16.1493 16.7688 2.3434
443 1 1 16.5404 16.5806 4.02901
1149 1 1 17.2811 17.8252 3.29418
692 1 1 18.6719 17.9949 2.76496
1958 1 1 17.8625 16.0964 5.22389
1166 1 1 0.291032 18.7434 5.02785
686 1 1 4.13468 0.624279 2.71286
847 1 1 0.851758 17.2833 3.02324
2492 1 1 2.73906 0.130143 1.07795
248 1 1 3.5712 17.7957 3.11858
325 1 1 4.44806 17.2765 2.26751
1122 1 1 4.175 0.315725 4.88709
605 1 1 7.2669 0.167457 3.35638
777 1 1 4.97315 16.4739 5.26537
813 1 1 8.47927 15.7159 3.02465
1174 1 1 8.18867 15.7544 4.34249
1385 1 1 9.01477 17.4507 4.7566
820 1 1 10.9664 17.8496 2.49265
6 1 1 6.12044 16.7329 3.18316
7150 1 1 9.62529 0.874251 4.78056
869 1 1 13.6991 1.02154 4.37946
460 1 1 13.1761 16.4764 4.80866
20 1 1 15.698 18.4276 4.48227
33 1 1 16.0252 18.8021 3.61013
437 1 1 17.1637 0.517434 2.81899
409 1 1 16.564 0.364834 4.73636
834 1 1 1.50707 18.5169 2.62529
867 1 1 0.173796 0.642004 6.00441
807 1 1 1.14491 0.242577 5.78484
794 1 1 1.80239 0.192372 4.16352
1526 1 1 2.22651 0.11455 5.48095
1171 1 1 2.67031 1.12214 5.29707
819 1 1 2.34403 17.8364 5.94174
763 1 1 2.8609 1.37818 6.67726
778 1 1 3.675 18.242 5.31362
971 1 1 5.4939 0.864429 4.39757
1729 1 1 6.67247 18.4049 4.26186
1248 1 1 4.95162 17.5861 6.51554
734 1 1 6.7085 17.1733 5.27644
1180 1 1 8.06109 18.7858 5.37196
1973 1 1 11.0376 2.53584 4.97019
353 1 1 10.6537 18.7184 4.45956
1308 1 1 8.90355 1.26306 5.54269
511 1 1 10.9075 1.13843 5.56222
2867 1 1 11.807 0.589069 5.91366
818 1 1 13.0363 17.8184 5.13899
1706 1 1 11.6961 18.447 5.11787
1213 1 1 14.4197 3.06273 4.18324
1514 1 1 16.9637 2.33484 4.78609
1672 1 1 15.3647 3.16789 5.0478
2347 1 1 17.8538 0.198317 5.60469
1549 1 1 17.5652 1.95182 4.08562
1543 1 1 17.5239 2.16457 6.08506
7914 1 1 17.6417 0.601987 4.27005
1240 1 1 18.1434 1.28009 6.55774
1205 1 1 18.3023 2.43763 5.25804
491 1 1 2.62055 2.42905 4.89592
1129 1 1 2.05916 2.06255 5.91183
1608 1 1 1.96437 3.39827 6.43468
1932 1 1 4.53271 1.5271 4.07713
93 1 1 8.8477 2.35391 4.94858
858 1 1 5.32008 1.29882 5.76874
503 1 1 6.21051 2.74117 5.10266
977 1 1 7.72548 3.42595 4.94973
2814 1 1 8.86295 18.495 4.61409
857 1 1 8.08321 1.55113 6.53037
14 1 1 9.71008 1.90723 5.49984
1181 1 1 9.38893 3.49931 6.1357
850 1 1 11.4254 3.51078 4.67648
1345 1 1 11.612 1.70215 6.0355
2026 1 1 11.4571 1.10794 4.69201
2020 1 1 14.2674 1.4731 2.162
1472 1 1 14.8823 3.16578 6.12936