ITEM: TIMESTEP
300
ITEM: NUMBER OF ATOMS
8000
ITEM: BOX BOUNDS pp pp pp
0.0000000000000000e+00 1.8820720577620570e+01
0.0000000000000000e+00 1.8820720577620570e+01
0.0000000000000000e+00 3.7641441155241139e+01
ITEM: ATOMS id mass type x y z
547 1 1 18.6449 18.4637 1.83127
835 1 1 1.63861 1.14151 1.51531
319 1 1 2.9503 1.35361 0.227004
96 1 1 2.28442 0.589113 0.391856
917 1 1 4.07103 1.40157 1.68456
796 1 1 3.3714 2.41323 1.50548
38 1 1 5.66019 1.63274 0.767417
696 1 1 6.41134 0.520338 0.924624
775 1 1 5.7905 1.17376 37.2355
1208 1 1 6.72747 1.86092 0.59639
1178 1 1 7.09833 18.6309 36.9003
7287 1 1 8.36095 0.464292 1.1292
814 1 1 10.9896 1.96251 0.124946
838 1 1 10.8847 1.14704 3.16224
7861 1 1 10.9436 0.191004 2.41211
7938 1 1 12.4952 0.86487 1.68428
116 1 1 12.5135 1.48963 36.957
501 1 1 12.8435 1.22247 0.654811
7230 1 1 15.179 18.3022 36.9364
7549 1 1 14.5536 0.948507 1.30755
1142 1 1 17.1495 1.4931 1.35673
7560 1 1 18.3471 0.269689 0.333843
34 1 1 18.0316 1.32168 1.76732
753 1 1 17.134 17.8041 1.14767
430 1 1 0.97172 1.67816 0.984374
109 1 1 2.75651 1.59103 1.66264
1675 1 1 1.89655 1.39876 3.33503
475 1 1 1.93853 3.05771 1.10978
1160 1 1 2.40483 2.48871 0.395747
1319 1 1 2.27145 2.22664 2.6625
841 1 1 4.51617 3.4505 1.17448
7316 1 1 2.84665 3.18004 37.4218
493 1 1 4.97182 2.1902 0.0358735
405 1 1 7.06322 2.41789 1.37136
5 1 1 8.72517 2.22803 0.776017
7646 1 1 7.96716 1.53398 0.186654
7 1 1 9.42897 2.7786 2.09283
17 1 1 9.21209 2.04223 37.2739
1385 1 1 10.61 2.06511 1.73124
421 1 1 11.5038 0.338942 0.914239
18 1 1 9.71851 2.82235 0.132298
1270 1 1 12.8906 2.91749 0.352615
149 1 1 13.9166 2.70793 0.40944
7987 1 1 15.9352 1.05423 0.587297
113 1 1 15.8437 2.27753 0.161459
39 1 1 15.1007 1.58548 37.4385
746 1 1 17.2249 2.39477 0.835625
7601 1 1 18.2567 2.53435 1.27712
7633 1 1 18.1257 2.28962 0.125822
2432 1 1 1.3808 4.17997 0.231002
1237 1 1 1.30897 2.39503 0.324755
209 1 1 2.37024 4.19365 0.86825
7647 1 1 0.937779 3.49204 1.39187
7253 1 1 5.03527 3.29646 2.40581
1239 1 1 3.69571 3.86549 1.99376
7607 1 1 3.2311 3.35856 1.19932
7644 1 1 7.95068 3.67118 1.25918
6856 1 1 6.42933 3.6785 37.0005
455 1 1 5.97681 2.68023 0.679561
7699 1 1 8.21316 4.03998 0.336893
765 1 1 8.53169 3.52012 2.51227
633 1 1 9.35652 3.77351 0.155613
1295 1 1 9.13297 3.68364 1.2473
779 1 1 10.4426 4.79606 1.36485
385 1 1 10.5275 4.20256 0.355971
461 1 1 12.5269 4.09454 1.03117
7303 1 1 11.6682 3.58909 0.479363
508 1 1 15.2293 3.87883 0.956139
978 1 1 14.0666 5.74871 0.318205
65 1 1 15.9493 3.71567 0.10108
420 1 1 15.9457 3.82333 2.44094
7636 1 1 16.8356 3.06935 0.310029
786 1 1 17.8936 5.14393 0.129791
356 1 1 17.5812 3.4144 0.961223
479 1 1 0.0957999 4.44203 37.4441
6956 1 1 18.2691 6.14166 37.3065
324 1 1 1.48405 4.85484 1.2393
362 1 1 1.76196 6.78971 1.33383
488 1 1 2.46139 5.99162 1.20751
886 1 1 4.2696 6.26035 1.68173
445 1 1 3.74091 6.23571 0.727393
3 1 1 4.95738 5.78629 0.984271
1327 1 1 6.38099 5.11577 1.00039
7250 1 1 6.55903 5.36179 2.12898
1310 1 1 7.22838 5.61751 37.1536
1026 1 1 7.30799 5.11854 0.509441
533 1 1 8.71914 6.67917 36.4179
171 1 1 8.34091 5.27369 0.327613
938 1 1 10.7754 5.51894 37.1677
7002 1 1 9.19113 6.19577 0.485363
934 1 1 11.0151 4.15734 1.84988
505 1 1 14.4892 6.17003 1.673
1309 1 1 13.5122 4.8839 0.78537
7855 1 1 12.5421 5.29296 1.19664
7392 1 1 14.8435 5.25199 36.1578
7603 1 1 16.7417 5.9574 1.97882
2197 1 1 15.9028 4.94245 1.04328
111 1 1 14.84 4.92082 0.667112
442 1 1 17.9519 5.813 1.19383
478 1 1 1.55763 5.93777 0.740395
7249 1 1 1.3795 6.86557 37.3476
440 1 1 2.964 6.97344 37.2272
528 1 1 3.78922 6.67086 3.10833
1461 1 1 5.54532 6.30309 2.03924
1366 1 1 4.41342 7.67455 36.966
7819 1 1 5.93054 7.74189 0.44115
7731 1 1 5.55902 7.39731 1.71568
1417 1 1 7.67449 6.89402 1.0773
7659 1 1 8.85499 7.13282 0.846348
537 1 1 9.79357 6.02384 37.21
623 1 1 10.898 6.10163 1.33717
973 1 1 10.2195 6.89539 0.620903
538 1 1 12.3838 6.24326 1.19097
591 1 1 11.6318 6.06226 0.34505
7591 1 1 13.3522 6.0888 1.89347
68 1 1 15.6458 5.98908 1.51975
579 1 1 15.2125 7.24816 37.38
7754 1 1 16.9119 6.56462 1.14653
554 1 1 15.5889 7.43851 2.77653
7641 1 1 18.5787 7.05547 0.447355
159 1 1 16.1904 8.01682 0.655961
7879 1 1 1.60778 7.79833 1.20346
7239 1 1 1.25379 6.99682 36.3099
580 1 1 2.47605 7.09079 0.580768
1369 1 1 2.02311 5.13346 0.0258705
1048 1 1 4.23135 7.96061 1.77523
6896 1 1 4.52979 7.06259 2.22396
653 1 1 6.77374 8.59841 0.766383
647 1 1 6.04121 8.60261 2.04581
539 1 1 8.32196 7.62106 1.53346
137 1 1 7.9633 8.13534 36.6299
228 1 1 9.93493 8.92795 0.296457
1422 1 1 11.3588 8.44044 2.4851
575 1 1 10.6938 8.01436 0.468004
462 1 1 11.1336 7.06056 1.29764
585 1 1 11.5542 7.25132 0.330093
532 1 1 11.1355 9.42791 0.0557941
7432 1 1 12.5269 8.72058 2.32978
7821 1 1 11.9499 4.86639 0.311181
7776 1 1 12.9457 7.07407 2.84258
188 1 1 12.655 7.38038 0.496231
556 1 1 15.3156 7.59419 1.03695
1031 1 1 14.6359 8.13192 36.9138
519 1 1 17.3951 8.35852 37.518
1473 1 1 16.3091 7.32235 1.63081
187 1 1 16.0457 6.46925 0.388419
959 1 1 0.379076 8.05114 1.46864
7924 1 1 0.614499 9.27383 37.067
7841 1 1 2.16714 9.99972 1.09212
197 1 1 2.42068 8.57701 1.47479
1314 1 1 2.20151 8.83832 37.6328
164 1 1 2.94818 9.15976 0.849159
1053 1 1 4.66655 9.41948 1.41505
215 1 1 5.72251 8.93277 1.03746
300 1 1 3.79754 10.7269 2.39443
7748 1 1 7.74637 8.98185 1.7024
7011 1 1 6.54778 9.98638 36.923
645 1 1 5.0735 10.5597 0.296087
95 1 1 8.26096 9.27751 0.744177
618 1 1 9.70285 8.02661 1.4413
178 1 1 9.86842 9.98996 0.626837
91 1 1 10.6437 8.43068 1.51034
7772 1 1 11.055 10.3527 1.01551
607 1 1 12.3695 10.1824 36.8301
7912 1 1 12.7708 8.29681 0.0536774
223 1 1 13.7565 10.1835 1.11641
230 1 1 13.8544 10.215 36.37
444 1 1 15.7083 10.594 0.384791
1072 1 1 15.0155 8.76092 1.36847
636 1 1 15.4456 9.58234 0.909804
114 1 1 16.6253 11.6167 0.710967
183 1 1 16.2478 9.69531 1.74768
7758 1 1 18.7583 8.69349 2.29525
281 1 1 0.212059 8.8306 0.591305
7525 1 1 0.384125 9.19168 1.52639
962 1 1 1.15859 9.41141 0.38108
7849 1 1 1.99794 10.2451 37.1627
7854 1 1 2.93591 11.214 0.940821
243 1 1 3.88657 11.9152 0.646129
7891 1 1 5.94088 11.2188 1.23304
7541 1 1 6.17658 10.6344 0.0885088
7822 1 1 7.02275 9.89082 1.89676
1148 1 1 7.28707 11.842 0.481676
7864 1 1 9.38828 11.1125 0.0329577
7862 1 1 8.47359 10.5206 0.0377696
1105 1 1 10.3986 11.3745 1.69473
1979 1 1 9.09568 10.7944 1.11911
142 1 1 11.7151 11.0588 0.755986
7904 1 1 11.8959 9.3633 1.32102
993 1 1 12.1289 9.95026 0.428773
1507 1 1 12.7606 12.3473 2.87649
235 1 1 12.513 10.9758 1.65271
6316 1 1 13.5417 10.1859 37.5582
7480 1 1 16.4202 10.9538 2.07467
6675 1 1 15.2636 10.5472 36.9831
144 1 1 14.5276 10.1036 37.6316
6997 1 1 16.822 10.5295 1.12042
7350 1 1 0.224701 11.5108 0.794864
238 1 1 18.2336 10.5423 1.15433
1282 1 1 2.19071 13.5919 1.04104
1136 1 1 3.92462 13.1008 37.5968
685 1 1 2.99338 12.7561 1.10702
7847 1 1 6.2965 11.9581 0.0159574
175 1 1 4.84943 12.2911 2.46586
296 1 1 6.70144 14.6556 37.0403
970 1 1 7.5259 12.0755 37.1231
7499 1 1 7.87546 13.0476 36.9071
1102 1 1 7.75499 13.1652 1.738
1509 1 1 8.61759 12.5621 0.800931
660 1 1 9.67471 12.1555 0.981437
7516 1 1 11.1041 13.1804 0.462003
333 1 1 12.5161 11.0934 0.190604
1100 1 1 10.74 12.0402 1.0975
7777 1 1 11.7822 12.562 0.106557
1182 1 1 13.7119 12.9747 0.717114
271 1 1 13.0264 11.9229 1.5883
7512 1 1 14.6452 11.9106 0.123287
683 1 1 14.5854 12.6291 1.04072
285 1 1 15.1131 13.5369 1.06648
280 1 1 16.328 12.5064 37.4091
4 1 1 17.7937 11.7761 1.01236
237 1 1 0.129758 12.0007 2.31143
7880 1 1 18.6764 12.478 1.02343
648 1 1 1.72486 14.7721 1.6839
202 1 1 2.16268 12.2679 0.469536
7921 1 1 2.81056 14.2176 1.60711
1173 1 1 3.27996 13.7229 0.808452
246 1 1 2.87178 13.844 36.3473
7817 1 1 3.66898 11.7427 1.71556
290 1 1 5.32185 14.0909 1.51704
7535 1 1 4.89829 13.168 0.837042
287 1 1 7.3946 11.9033 1.72629
229 1 1 8.34092 13.5951 0.713524
1070 1 1 8.97183 14.1441 2.17101
1573 1 1 8.9334 13.5564 37.5815
1908 1 1 9.18082 13.1455 1.43876
7502 1 1 9.81289 14.3725 36.6692
7610 1 1 8.86826 14.4276 0.838777
7983 1 1 11.0898 14.5452 37.0696
1069 1 1 13.2229 14.0314 0.632524
204 1 1 17.3356 13.2884 37.104
1108 1 1 17.0376 12.588 1.52065
6746 1 1 16.8215 14.2749 35.6792
154 1 1 18.8203 13.2674 2.06797
194 1 1 18.3148 16.5973 37.6378
873 1 1 0.86977 15.1032 0.940651
1529 1 1 2.87527 15.1587 0.662385
7574 1 1 3.98845 14.2148 37.5709
85 1 1 1.73649 14.5537 0.471218
7930 1 1 5.15976 16.096 0.912589
7897 1 1 3.70905 14.7786 0.830964
345 1 1 8.19062 14.9862 0.0795841
344 1 1 9.31097 15.4134 1.46351
738 1 1 8.30461 16.0315 37.183
7929 1 1 10.837 15.8052 0.55727
1533 1 1 12.1026 14.2707 1.69606
7436 1 1 11.8573 15.3732 37.3085
7858 1 1 13.8203 14.5528 37.5494
7920 1 1 15.7464 15.4793 0.843116
670 1 1 16.781 15.0838 1.11414
278 1 1 18.5326 17.2331 1.3816
7870 1 1 17.3983 15.6001 1.79105
791 1 1 1.89436 17.0959 37.3208
398 1 1 2.00981 17.142 1.4041
310 1 1 18.177 15.9398 0.939529
331 1 1 2.81788 17.6178 0.616603
7602 1 1 1.88572 15.8083 0.508442
397 1 1 3.83021 17.6506 0.826859
7086 1 1 3.95128 15.7612 0.814792
7555 1 1 5.17379 16.7478 1.71755
340 1 1 5.8566 17.1745 1.01194
7695 1 1 5.80208 16.5077 0.00635779
768 1 1 7.26128 15.9663 0.340064
249 1 1 7.20845 17.4947 36.7679
6936 1 1 7.44342 17.6318 0.656
7667 1 1 10.9629 17.8257 37.5508
286 1 1 8.84325 17.1453 0.290904
7613 1 1 8.67567 15.7129 0.495434
675 1 1 11.2891 17.4057 1.22183
7437 1 1 13.1474 17.3787 0.111279
7994 1 1 11.0287 16.3549 1.58893
7951 1 1 12.9829 16.4061 0.272402
64 1 1 13.7796 16.8824 1.66809
7147 1 1 13.0106 14.7556 1.36828
785 1 1 15.6061 17.4235 36.6923
7963 1 1 16.4057 17.1404 37.4818
1199 1 1 17.8909 15.4094 37.517
834 1 1 18.3256 18.1176 0.843437
7844 1 1 16.97 16.6293 0.622652
439 1 1 0.973444 18.3061 1.2865
7926 1 1 2.76819 18.0412 1.53245
318 1 1 2.11913 18.3112 0.00526779
7848 1 1 1.96552 0.106405 1.47666
6767 1 1 4.69828 0.0714439 0.880369
7532 1 1 5.31003 18.3147 0.35022
7661 1 1 5.11322 0.844555 0.344607
7620 1 1 9.30222 18.553 1.06349
141 1 1 8.31958 18.2699 0.629528
329 1 1 5.79615 0.107647 37.3058
338 1 1 7.3944 0.776192 0.708397
740 1 1 10.1337 17.4472 1.82589
749 1 1 11.7859 18.2613 37.4611
837 1 1 15.8335 18.1028 0.177028
6832 1 1 14.7479 18.371 0.893369
79 1 1 17.3612 17.4741 0.187798
7638 1 1 17.5643 18.7137 2.30155
1713 1 1 0.114415 18.5107 37.2945
105 1 1 1.16348 16.306 0.8856
1158 1 1 18.6268 0.894674 2.77602
491 1 1 0.466789 0.587695 3.64813
7996 1 1 3.50847 2.01946 2.46686
7651 1 1 1.73816 0.597723 2.39744
35 1 1 0.921739 1.37132 2.40768
778 1 1 1.47443 0.392538 3.56866
323 1 1 4.71292 2.05842 1.30072
1210 1 1 7.7868 16.6382 1.93322
419 1 1 7.16017 0.347598 2.27499
1541 1 1 8.56618 18.6594 2.06674
553 1 1 10.4725 2.29864 3.25321
1130 1 1 11.9385 0.613941 2.64872
504 1 1 8.74176 0.869377 2.20004
375 1 1 12.8883 0.343247 2.78912
7779 1 1 13.5812 18.5733 0.847205
353 1 1 12.3548 1.10003 3.54029
1138 1 1 13.4866 1.27151 1.61155
7989 1 1 14.1514 1.33287 0.330037
7990 1 1 13.7881 0.452213 2.36261
784 1 1 17.4227 0.189175 1.21685
151 1 1 15.94 0.819669 1.78868
1146 1 1 15.7086 18.7819 1.07318
899 1 1 18.2091 18.4471 3.35651
7950 1 1 0.167308 1.82929 1.7483
483 1 1 0.485029 2.59496 2.57711
2134 1 1 0.998955 2.16 3.91975
321 1 1 3.10793 2.52721 3.49088
802 1 1 2.13891 18.4829 2.44295
503 1 1 4.48514 1.16033 3.31989
487 1 1 6.17181 18.3941 2.76615
7616 1 1 6.13121 0.987124 2.8598
7585 1 1 7.22301 1.36101 1.60772
764 1 1 9.34553 1.88655 3.35344
496 1 1 8.35081 2.50693 2.42863
726 1 1 8.25899 1.6775 2.99833
416 1 1 9.25137 1.6667 1.86736
1308 1 1 9.98146 2.03972 4.18155
500 1 1 11.4763 2.27418 2.66211
1196 1 1 13.2775 2.37683 1.20344
460 1 1 12.7309 1.58751 2.58167
7911 1 1 11.4124 1.45593 1.95631
7708 1 1 14.9591 2.84654 0.596444
422 1 1 13.6768 2.45575 2.24058
7997 1 1 12.5359 3.08348 1.7749
1223 1 1 15.3842 1.9364 1.2165
1238 1 1 16.5282 3.49623 1.40756
157 1 1 16.5006 1.80471 2.6161
1717 1 1 17.9042 3.07083 2.82764
7756 1 1 0.143565 3.5951 0.684561
1634 1 1 18.1837 4.36276 0.888564
520 1 1 3.24593 3.06755 2.34298
1280 1 1 2.90443 4.73795 2.04388
7715 1 1 1.60218 3.59526 2.1188
523 1 1 0.00145308 3.55592 1.82788
1932 1 1 4.93663 3.53915 3.72052
89 1 1 5.48464 2.69638 1.64413
527 1 1 5.73482 3.95613 3.22577
43 1 1 4.71041 1.97607 2.51818
60 1 1 6.92042 4.08324 0.860913
1168 1 1 5.67912 1.97038 2.46495
887 1 1 6.61536 4.14062 3.91883
7296 1 1 6.74169 3.56468 3.03165
7698 1 1 9.51071 4.44833 1.61012
1337 1 1 7.72642 4.77677 1.36165
7700 1 1 9.68024 3.05558 3.13392
217 1 1 10.6001 4.39585 3.65968
7656 1 1 10.0207 3.03878 1.06287
781 1 1 11.4949 2.453 1.05277
224 1 1 10.1328 4.7446 2.53753
616 1 1 11.4369 3.33042 3.13141
7665 1 1 12.3771 5.47865 2.31988
874 1 1 14.539 2.71994 1.65774
7552 1 1 15.296 3.24935 3.06746
1670 1 1 15.5435 3.03743 1.42566
1640 1 1 16.96 4.53364 1.11568
1315 1 1 16.6063 2.74333 3.16035
525 1 1 17.7984 3.94834 1.87215
481 1 1 18.2419 5.31047 2.81868
1751 1 1 0.0755695 5.15331 1.558
6804 1 1 1.38503 5.74279 1.74515
7643 1 1 2.49966 5.65483 2.4158
1776 1 1 3.45809 5.69654 2.16096
7685 1 1 6.10712 5.00038 3.36729
1045 1 1 6.5286 6.41011 2.95498
1339 1 1 3.78362 4.95121 1.19772
130 1 1 5.49896 4.24942 2.02467
94 1 1 8.17395 4.79975 3.05269
1373 1 1 7.0357 4.09103 2.23036
1701 1 1 10.4628 5.41027 3.14606
581 1 1 10.2729 5.61613 1.97451
147 1 1 12.4183 5.69798 4.49807
954 1 1 13.4272 4.9641 2.39692
100 1 1 13.7346 3.95275 1.58191
908 1 1 14.9882 4.08191 1.94291
156 1 1 14.3047 5.86942 3.18035
1194 1 1 17.3545 5.55092 3.11549
801 1 1 16.543 4.98577 2.29272
1316 1 1 17.6056 5.06881 1.9452
522 1 1 1.00347 6.98859 4.19786
1323 1 1 1.64504 6.55832 2.3495
1806 1 1 0.724618 7.37514 0.161487
241 1 1 2.45446 6.84553 2.84501
1409 1 1 3.57186 4.52923 3.14945
729 1 1 1.16982 6.43172 3.32232
566 1 1 4.54851 4.92298 2.48101
7718 1 1 5.24437 8.66719 2.79738
10 1 1 5.90074 6.33118 1.05097
1296 1 1 7.78346 6.00498 2.40095
7762 1 1 6.62987 6.45979 1.83941
376 1 1 8.43037 5.85811 1.45931
497 1 1 9.77 6.5762 1.43575
555 1 1 10.9571 6.29871 3.56596
587 1 1 8.82696 6.4553 2.61616
446 1 1 9.83043 6.36822 2.57637
140 1 1 10.3128 7.30873 2.038
498 1 1 10.9712 6.16102 2.49444
1668 1 1 13.1998 5.83638 3.04458
552 1 1 14.0902 6.74726 2.53583
515 1 1 14.1147 7.21527 1.1498
1359 1 1 14.9768 6.50953 0.757299
1037 1 1 15.5368 6.15013 2.72717
1637 1 1 16.2638 6.42464 3.50051
1754 1 1 17.8674 7.23344 3.22133
1360 1 1 0.12598 6.55238 3.12443
1318 1 1 16.5187 6.88402 2.57693
45 1 1 2.48058 9.02355 2.72029
158 1 1 1.11054 8.48745 2.4377
81 1 1 3.7569 7.48646 0.534181
720 1 1 2.53342 9.77181 3.95232
1766 1 1 2.8121 7.69984 1.79257
852 1 1 3.38983 7.47879 3.9249
153 1 1 3.36884 8.83358 3.59477
637 1 1 4.43449 7.82162 3.34944
1781 1 1 4.1852 8.36934 4.15571
138 1 1 6.01959 7.55809 2.79664
53 1 1 7.14268 8.52268 2.73091
2177 1 1 4.91426 9.73342 2.87661
1085 1 1 5.75786 9.87965 2.20591
1727 1 1 8.34216 7.93882 2.9991
177 1 1 8.67814 7.79227 37.409
1098 1 1 9.18635 7.3057 2.33651
890 1 1 9.77847 8.24022 2.47014
232 1 1 9.06246 9.18256 1.82146
231 1 1 11.3463 7.26972 2.38793
948 1 1 11.926 6.79289 3.33798
1441 1 1 12.624 7.76477 1.63125
2153 1 1 13.3715 8.07595 3.20162
193 1 1 16.5308 8.26831 1.98509
7798 1 1 14.602 7.83017 2.77603
594 1 1 15.7746 8.34649 3.09601
7397 1 1 16.717 7.82388 3.39102
7721 1 1 0.0715446 6.36337 1.19788
441 1 1 0.445656 8.77902 3.5015
7800 1 1 1.50897 9.15699 1.31231
7806 1 1 2.05293 9.82031 2.15348
6484 1 1 1.83058 9.81822 4.75973
564 1 1 3.40098 8.12036 2.57473
1041 1 1 3.95121 9.27802 2.74712
374 1 1 6.17333 13.8811 2.31574
7734 1 1 5.80278 10.218 1.08851
536 1 1 7.53993 10.7224 2.21848
7377 1 1 8.24402 8.8756 2.65025
1420 1 1 8.25161 9.78072 1.88742
7774 1 1 9.16939 8.86428 3.35638
7712 1 1 12.9799 9.2089 3.31626
1020 1 1 10.2128 9.12369 2.34776
1478 1 1 14.1617 8.34313 2.10469
7808 1 1 11.5147 10.5358 1.9365
1430 1 1 11.8687 9.54216 2.67052
276 1 1 16.3247 9.77519 4.08716
1033 1 1 16.9346 9.0222 2.78841
308 1 1 0.190197 9.65986 2.57042
393 1 1 0.916491 10.4391 2.7161
7931 1 1 1.48925 9.32988 2.89272
206 1 1 1.90963 10.9157 1.23844
1852 1 1 1.82453 10.7353 2.38875
201 1 1 2.98892 10.8775 3.10043
983 1 1 3.46116 9.99355 1.75789
357 1 1 7.03776 10.8795 1.25229
1376 1 1 5.47093 10.5806 3.01974
526 1 1 5.31924 11.2894 2.41189
1008 1 1 6.28116 12.0352 2.22835
1089 1 1 6.44249 11.2887 3.84954
1135 1 1 7.78824 11.9566 3.48801
1532 1 1 8.18649 11.09 1.31624
1065 1 1 8.31728 11.2771 2.65009
615 1 1 9.17318 10.1744 1.91948
1790 1 1 10.6804 9.43102 1.39782
492 1 1 9.97233 10.4692 3.90586
227 1 1 10.4386 12.8442 3.78247
7811 1 1 12.1016 11.9884 1.30895
1044 1 1 11.0108 10.171 3.39052
638 1 1 13.5936 11.8421 3.05474
593 1 1 11.7835 10.7358 2.95305
1074 1 1 13.5334 11.0087 1.82695
7395 1 1 14.22 10.1817 2.94474
669 1 1 16.4874 10.8035 3.60028
7804 1 1 17.64 10.4612 2.42252
349 1 1 17.9681 9.3347 2.3042
6569 1 1 18.4577 11.0801 1.89785
7322 1 1 1.14987 11.9535 3.03632
162 1 1 1.06736 10.2684 1.6542
1005 1 1 2.1739 12.0462 1.63461
327 1 1 2.35427 13.546 2.34828
925 1 1 4.1955 11.151 3.25432
7928 1 1 2.80868 10.6854 2.01102
233 1 1 2.94459 11.765 2.52965
342 1 1 5.09935 12.0593 1.31194
1486 1 1 5.19622 14.086 2.7087
1017 1 1 7.5162 12.5419 2.63997
699 1 1 9.24605 12.0764 1.91784
1103 1 1 9.87182 12.7902 2.49203
1822 1 1 10.7979 11.0923 3.71457
610 1 1 10.5747 10.2396 2.16011
1153 1 1 13.739 12.8581 1.95493
1538 1 1 14.015 12.7451 2.9268
878 1 1 14.1794 11.8761 2.08758
1073 1 1 15.1053 11.0697 2.06099
7444 1 1 14.8308 10.3754 1.17317
2234 1 1 15.5186 11.8217 0.825978
559 1 1 17.4881 11.7877 2.2234
7791 1 1 16.3562 11.898 2.66553
1484 1 1 15.59 12.3951 1.69661
7757 1 1 18.5607 12.5186 3.22744
404 1 1 2.09928 12.4054 2.66933
7052 1 1 0.249607 13.7764 1.18602
1128 1 1 1.44054 13.5606 1.8995
2373 1 1 4.08411 12.8119 1.43025
7180 1 1 5.07755 15.0854 2.80018
7487 1 1 4.21914 13.1477 2.84157
691 1 1 7.1834 14.1625 1.828
2661 1 1 8.03525 13.7388 2.69293
7936 1 1 6.12738 13.2944 1.15797
225 1 1 8.56946 12.7253 2.49068
1133 1 1 8.3439 14.9482 1.86777
7945 1 1 11.168 14.4679 2.41033
736 1 1 9.22164 13.5209 2.9896
1501 1 1 11.3616 14.5919 0.459366
7464 1 1 10.5112 13.5189 37.1099
259 1 1 12.9857 13.6613 1.75253
2244 1 1 11.7349 13.1575 1.53167
1942 1 1 14.5429 13.7493 3.17986
1368 1 1 15.4025 13.9918 2.06827
608 1 1 14.9716 13.5463 37.2563
7515 1 1 16.841 13.5948 2.8718
1389 1 1 18.1991 14.7367 3.31797
1439 1 1 0.999364 12.2554 1.5809
1427 1 1 0.0228083 14.4889 2.41687
7968 1 1 0.697134 15.6846 1.89486
686 1 1 1.36827 16.6799 2.70699
7658 1 1 1.20551 14.4991 2.75459
590 1 1 0.578041 12.7349 2.85271
609 1 1 2.84444 16.5032 1.93969
7835 1 1 2.86672 15.2467 2.4617
1081 1 1 4.66105 15.1728 1.27082
1446 1 1 4.4687 15.7796 2.24904
7503 1 1 6.18985 14.4841 1.485
1485 1 1 5.40055 16.1433 2.66961
7123 1 1 5.58077 15.4597 1.8979
7579 1 1 7.1903 13.8322 0.737802
690 1 1 7.86961 15.7858 1.2193
773 1 1 6.59626 15.7711 1.18222
31 1 1 10.4121 15.1731 1.16228
304 1 1 9.95705 13.9518 1.74597
1170 1 1 10.1607 16.2529 1.90514
7531 1 1 8.72788 15.9623 3.33475
7508 1 1 11.8786 16.031 3.15963
7829 1 1 12.2972 13.6723 2.58266
7834 1 1 13.9987 13.9014 1.5513
273 1 1 13.7918 15.1802 3.01699
1192 1 1 13.4861 15.8516 1.585
7075 1 1 14.5128 14.6698 1.1673
990 1 1 15.4843 15.4264 2.44599
7551 1 1 14.8865 16.368 1.76391
306 1 1 15.709 14.4587 0.90527
1561 1 1 16.708 14.1637 1.65326
1149 1 1 18.3578 16.7532 3.32696
394 1 1 1.78338 16.6975 4.40285
248 1 1 3.6868 17.0732 2.38194
755 1 1 1.94195 15.749 1.55305
7972 1 1 3.70788 18.726 1.683
643 1 1 4.19388 16.6354 1.40484
7455 1 1 4.76151 17.7232 1.12053
1131 1 1 5.30324 17.3133 2.61908
292 1 1 6.23372 17.8497 2.00437
1172 1 1 5.82395 15.301 0.711561
16 1 1 7.58977 15.9489 2.64741
700 1 1 8.06429 16.6058 0.65593
346 1 1 9.14091 17.4358 2.4702
381 1 1 9.05644 16.1156 2.22001
1506 1 1 10.9608 16.696 2.64789
1226 1 1 10.2438 17.5021 0.682561
658 1 1 12.4058 16.9134 1.19358
379 1 1 12.1609 15.4723 0.958326
2062 1 1 12.2943 15.503 2.27293
1107 1 1 14.212 16.321 2.86704
7040 1 1 15.9122 17.2146 1.55365
1537 1 1 14.5038 15.483 2.07644
33 1 1 15.9757 16.0133 1.66152
1233 1 1 16.4889 16.477 2.61432
7561 1 1 0.297954 17.4361 2.29687
1474 1 1 17.0285 17.7089 2.12059
1198 1 1 1.21143 17.6142 2.32862
412 1 1 0.469969 18.7802 2.7901
7197 1 1 1.16571 17.1751 3.52451
1481 1 1 1.69557 17.9498 3.24754
155 1 1 3.04489 0.560252 1.3182
325 1 1 3.25778 18.0198 2.75424
207 1 1 4.71901 18.1676 2.18076
7896 1 1 4.58216 0.586612 2.46307
889 1 1 5.50841 18.4129 1.35031
363 1 1 6.39387 18.1885 0.791521
27 1 1 8.83966 16.9137 1.40639
1174 1 1 7.35874 18.1262 1.71149
7913 1 1 12.0572 18.2877 2.51194
820 1 1 10.0518 18.7986 2.87432
7550 1 1 10.3467 0.0529538 1.58497
22 1 1 12.8459 17.879 1.32546
982 1 1 10.9704 17.803 2.27025
391 1 1 11.9185 17.2034 2.13345
433 1 1 13.3182 17.9054 2.62478
1272 1 1 14.8971 17.7686 1.86783
754 1 1 15.8294 18.3683 2.45879
2033 1 1 16.7315 18.4496 3.33841
40 1 1 18.0832 17.7016 2.62633
800 1 1 18.3568 2.01628 2.56417
888 1 1 0.83068 18.3544 3.63085
1200 1 1 18.4167 0.0497598 4.36161
1106 1 1 1.77495 1.17565 4.32467
843 1 1 2.77631 18.6065 3.67344
7614 1 1 4.62245 18.0383 3.47781
1201 1 1 5.82015 0.366164 1.88414
777 1 1 5.28563 0.666191 5.44006
7678 1 1 5.95046 0.42419 3.72615
1141 1 1 6.71499 0.502465 5.42358
1584 1 1 6.1018 18.7915 4.75333
6 1 1 9.02412 17.7778 4.21899
855 1 1 8.11631 0.219813 2.96848
1548 1 1 10.779 17.8305 4.98773
1250 1 1 11.0453 0.518215 4.09688
869 1 1 11.4519 1.51233 3.90349
139 1 1 13.6699 1.64752 3.0681
941 1 1 11.9471 0.414168 4.43481
20 1 1 13.3273 0.660807 3.62059
7155 1 1 14.5542 1.40968 2.3586
7478 1 1 15.0645 0.426641 2.19448
1187 1 1 14.313 18.5113 2.72981
7887 1 1 17.1203 18.8176 4.99234
364 1 1 18.3903 1.71818 4.73835
2029 1 1 17.0781 0.960708 2.2888
884 1 1 18.8156 2.7479 3.74515
336 1 1 3.2604 0.790838 3.24526
47 1 1 1.70662 2.64808 4.42585
1129 1 1 3.04513 1.5214 5.17947
1638 1 1 3.43418 18.7888 5.25609
7298 1 1 5.34676 1.4278 4.30199
1340 1 1 4.99312 2.17194 3.66107
971 1 1 5.96966 1.88635 3.64841
93 1 1 5.94277 2.84902 3.01738
937 1 1 7.53616 2.03599 4.39407
1582 1 1 6.98775 1.6452 3.22636
7150 1 1 8.91773 2.15634 4.52885
863 1 1 8.12597 1.11124 4.03126
511 1 1 11.5213 2.56434 3.95335
26 1 1 14.0583 1.15843 5.12809
821 1 1 13.0874 2.66227 4.83205
7619 1 1 12.4187 2.76466 2.99756
818 1 1 11.7439 2.01939 4.93386
1540 1 1 14.6599 2.05353 3.72437
427 1 1 15.4481 1.41546 3.22641
1964 1 1 15.0168 2.36161 2.67305
752 1 1 16.3859 2.31427 1.61274
756 1 1 16.1704 2.34428 4.0335
115 1 1 17.6093 0.701574 3.29459
450 1 1 0.402828 3.50839 3.154
1636 1 1 0.216114 4.45596 2.46497
603 1 1 2.63712 4.40126 3.57739
1738 1 1 1.39429 2.9541 3.06704
1216 1 1 4.84394 3.13601 4.73435
767 1 1 3.04455 4.34101 4.88652
885 1 1 6.46582 3.10719 5.00918
734 1 1 5.90353 3.75165 5.84746
1336 1 1 7.32041 4.92971 4.15644
977 1 1 6.59667 2.12144 4.67986
41 1 1 8.50205 2.72564 3.62618
1206 1 1 6.61882 2.74967 3.75955
611 1 1 8.87314 3.61785 3.3692
850 1 1 9.71624 3.02712 4.28024
1687 1 1 10.6747 3.22223 2.39129
876 1 1 9.69323 4.13559 4.2826
824 1 1 12.1519 4.17652 2.05158
588 1 1 12.0261 3.54575 4.03273
426 1 1 13.0127 3.94446 3.8073
1597 1 1 12.4305 4.93303 3.24688
543 1 1 13.278 3.36339 2.67046
514 1 1 14.3264 3.31174 2.79158
495 1 1 15.0047 3.05856 4.00509
910 1 1 16.0808 3.6928 3.67197
119 1 1 15.1147 4.19039 3.25232
2159 1 1 17.1381 3.28371 2.20984
7228 1 1 17.9391 1.73758 3.65636
1197 1 1 1.31553 4.10429 3.18889
1241 1 1 18.6896 7.12106 4.0201
848 1 1 1.27323 4.63896 2.22292
1334 1 1 0.69234 5.97861 5.62648
98 1 1 2.72483 3.78896 2.77291
1330 1 1 4.14721 5.50465 3.64713
2136 1 1 5.6397 4.34829 4.27034
965 1 1 5.79309 4.80906 5.18913
1729 1 1 3.94644 4.10188 4.12866
7219 1 1 7.00263 4.91522 5.1292
180 1 1 7.25246 5.34092 3.274
1331 1 1 7.51392 5.83238 4.83893
1066 1 1 8.75357 4.75499 4.42175
2150 1 1 9.45201 4.428 3.2482
909 1 1 11.3906 5.29158 2.10091
1229 1 1 11.5137 4.41927 3.13758
173 1 1 11.5591 5.48288 3.15863
32 1 1 13.5125 6.5894 3.90285
1413 1 1 11.0219 5.39016 4.16697
947 1 1 12.362 4.71601 4.26893
470 1 1 13.3012 4.9271 4.52804
2232 1 1 13.5023 4.69189 3.31911
509 1 1 15.3642 5.98555 3.79286
1202 1 1 14.3982 5.73923 4.50855
2071 1 1 16.6717 4.4089 3.34422
1759 1 1 15.9599 5.94643 4.74346
1355 1 1 18.7132 4.17399 3.97385
1275 1 1 16.3078 4.76354 4.49219
560 1 1 0.539738 5.35776 3.30713
568 1 1 1.16607 7.51207 2.7548
2357 1 1 1.0444 5.67146 4.23487
808 1 1 1.99496 6.35099 4.21641
489 1 1 1.57093 5.66238 2.77338
239 1 1 4.7071 4.53199 3.52995
936 1 1 2.85585 7.54807 5.1281
1299 1 1 4.79552 6.14411 3.2479
898 1 1 6.6954 5.95497 4.16164
1732 1 1 5.59876 6.33532 4.15946
932 1 1 7.70906 7.01042 2.56587
1333 1 1 8.55342 5.19425 2.22128
1381 1 1 8.09991 5.71338 3.78412
2126 1 1 9.96002 6.16348 3.70371
2103 1 1 9.04985 5.421 3.28554
1015 1 1 9.91763 5.20556 4.21022
7850 1 1 10.9558 6.4581 4.80125
862 1 1 12.0374 7.76105 3.05572
1354 1 1 13.0427 5.1865 5.77763
1463 1 1 12.3333 6.74725 4.63559
1438 1 1 14.0414 7.70051 4.14095
7714 1 1 13.3143 5.97346 5.09748
2269 1 1 15.4938 7.4864 3.79181
1648 1 1 14.6933 6.77702 3.63153
1793 1 1 15.2182 6.93784 4.61862
1443 1 1 17.7612 6.30422 4.39932
1488 1 1 18.7526 7.69666 2.83885
1677 1 1 18.2643 5.90665 5.47355
927 1 1 1.63242 8.30582 3.49742
449 1 1 2.67119 8.19697 4.32277
90 1 1 1.82864 7.16308 3.5523
966 1 1 4.44652 6.95888 3.79641
1051 1 1 5.34906 7.57394 3.84012
7843 1 1 5.9391 8.22875 5.01817
571 1 1 6.11701 8.22109 3.48776
1466 1 1 10.1194 7.04785 4.42411
951 1 1 7.54949 7.13881 3.97894
7827 1 1 11.0335 7.83551 3.39799
1378 1 1 9.89288 8.21726 3.73017
1019 1 1 10.9057 8.16128 4.69757
2094 1 1 10.8326 7.26639 5.52186
1387 1 1 11.595 7.436 4.34401
1036 1 1 14.0192 9.33875 3.34087
1429 1 1 12.0475 7.83533 5.34208
1395 1 1 13.5979 8.80802 5.69203
2154 1 1 15.3081 9.35861 2.43598
1798 1 1 14.8198 8.33424 3.68995
134 1 1 15.7323 8.79958 4.57468
996 1 1 17.5303 8.5111 4.38435
1350 1 1 17.7586 8.33606 2.90402
311 1 1 18.0336 9.22159 3.46943
6867 1 1 1.54522 9.29731 3.95234
1365 1 1 2.08015 10.5282 3.46289
1850 1 1 2.08379 8.53051 5.67811
315 1 1 4.08778 9.16005 5.02458
358 1 1 5.54675 8.97944 3.94831
586 1 1 5.62397 9.60373 4.71017
7823 1 1 5.03515 8.25077 4.61359
1421 1 1 6.127 9.53776 3.25841
208 1 1 6.99365 8.54366 3.87434
988 1 1 7.24472 9.45098 3.0229
2065 1 1 8.69319 9.51965 4.26259
649 1 1 11.7423 8.75432 3.44927
1390 1 1 11.493 9.09651 4.48858
606 1 1 12.6238 9.03678 4.34865
1718 1 1 14.2667 9.30642 1.53605
108 1 1 15.5645 10.0981 3.34339
1714 1 1 13.9444 8.76157 4.69515
2645 1 1 15.7064 9.78099 4.94284
1353 1 1 16.7233 8.85871 3.77585
1396 1 1 17.2772 10.0961 3.30234
1556 1 1 17.2923 9.59982 4.46164
1403 1 1 0.636569 9.9838 3.71091
1521 1 1 0.995331 10.3679 4.61413
1001 1 1 1.57218 13.2593 3.16782
365 1 1 1.18318 11.0682 3.93463
2084 1 1 2.30395 10.8438 4.35577
7482 1 1 3.70095 10.4096 3.82909
573 1 1 5.32653 11.7662 3.32154
1050 1 1 7.80253 12.0186 4.46058
255 1 1 6.96427 13.6232 3.3268
694 1 1 10.6988 9.00596 3.55661
1695 1 1 8.97085 10.4766 3.76961
1111 1 1 11.0055 11.0725 4.82979
211 1 1 12.0138 9.88001 3.69542
1039 1 1 13.1201 9.97693 2.47492
303 1 1 12.2951 11.9249 3.83946
136 1 1 11.8476 10.891 4.00711
78 1 1 15.1015 12.317 2.56348
955 1 1 12.8157 10.7346 3.23052
7428 1 1 15.0461 11.2356 3.14726
914 1 1 16.2012 10.6255 4.59912
642 1 1 16.5432 11.6015 4.29786
757 1 1 18.0404 11.2543 4.64315
1475 1 1 18.5292 11.5069 3.39504
1878 1 1 18.2429 10.191 4.11804
557 1 1 18.3578 10.5163 3.16251
125 1 1 2.6098 14.8776 4.51487
1163 1 1 2.2152 11.8273 3.5133
288 1 1 3.39732 12.6489 3.60326
7888 1 1 3.39003 13.8018 3.15863
1287 1 1 3.65293 11.6097 4.10925
1411 1 1 5.53177 12.5303 4.00569
621 1 1 5.73504 13.5945 3.44296
574 1 1 9.44113 11.9422 3.03306
1983 1 1 9.62973 11.0317 2.84714
277 1 1 11.0522 12.7846 2.38062
622 1 1 11.635 13.6846 4.41887
2112 1 1 11.9938 11.6381 2.70274
667 1 1 13.3041 13.6229 2.85038
600 1 1 14.7732 12.6521 4.45988
991 1 1 13.1201 13.4374 3.83809
7907 1 1 13.6328 11.2197 4.32325
6719 1 1 15.2531 13.0828 3.31468
240 1 1 15.5228 11.994 4.15709
967 1 1 16.4194 12.7305 3.80276
968 1 1 15.5433 13.5062 4.29948
1159 1 1 18.5811 12.1428 4.28347
251 1 1 17.9805 13.7845 2.6669
1450 1 1 3.42634 13.1514 2.2131
688 1 1 1.75963 14.8429 3.72282
627 1 1 3.62073 14.6863 1.97396
2343 1 1 5.9095 13.3229 4.68479
7784 1 1 7.03121 13.559 5.12921
213 1 1 9.14411 12.4861 3.88081
1939 1 1 9.42573 13.4982 4.33547
2017 1 1 10.6556 13.9385 4.08528
628 1 1 12.9217 14.5866 3.12662
1432 1 1 11.5347 12.9781 3.49112
747 1 1 14.7438 12.636 5.65974
1825 1 1 14.8116 13.2051 2.30421
1120 1 1 16.4577 13.9503 3.89642
1042 1 1 17.0094 13.2669 4.7877
597 1 1 17.3865 12.5503 3.08971
639 1 1 17.4836 13.9921 3.72188
282 1 1 0.0687394 15.7531 2.6755
1487 1 1 0.511091 13.9414 3.25535
1550 1 1 2.62897 15.7213 4.14558
2367 1 1 0.54338 15.0385 3.20109
7900 1 1 3.70031 14.5382 5.10109
350 1 1 3.80954 15.2559 3.51351
1217 1 1 6.62014 15.5947 3.11327
687 1 1 7.05604 15.1705 2.03368
7975 1 1 6.71869 16.9217 1.79778
1530 1 1 7.79653 16.1484 3.88783
1145 1 1 6.02393 14.5994 3.17715
7543 1 1 8.14527 15.6235 5.58673
253 1 1 8.26487 13.6169 3.67695
1527 1 1 7.09892 16.0873 5.3001
1579 1 1 8.76432 16.127 4.59124
1139 1 1 9.35764 14.6521 2.93209
317 1 1 9.64999 15.3725 3.78398
1906 1 1 11.6814 15.0625 2.9586
254 1 1 11.0301 15.0883 4.49888
7838 1 1 13.0637 16.2246 2.9292
269 1 1 14.8489 14.8053 3.50069
663 1 1 16.6365 15.4558 3.30628
629 1 1 17.509 16.2429 3.26602
2037 1 1 16.4306 15.1365 2.29095
1046 1 1 17.3405 15.002 4.15046
724 1 1 1.55038 15.964 3.5125
727 1 1 2.18934 16.7291 3.50616
1156 1 1 1.67306 15.5885 4.38521
1449 1 1 2.84646 16.7929 4.3103
1211 1 1 3.37949 17.4057 3.52913
682 1 1 2.03609 15.9203 2.56641
1453 1 1 4.36095 16.4073 3.08434
693 1 1 3.23201 16.0102 2.91685
1134 1 1 7.24341 17.0418 2.75335
704 1 1 4.84771 16.4531 4.16234
7856 1 1 9.81596 17.0528 3.77395
7980 1 1 8.25267 17.1726 2.95252
19 1 1 9.91107 16.3583 2.95557
1184 1 1 10.5786 15.3881 2.69421
1151 1 1 12.5127 16.097 4.19051
7872 1 1 14.2558 16.4413 4.02242
790 1 1 13.2546 17.12 4.24042
823 1 1 13.4983 15.8032 4.66353
798 1 1 12.887 17.1117 2.16552
234 1 1 15.5984 16.3329 3.24362
678 1 1 14.661 15.925 5.36052
1997 1 1 17.5609 16.6816 2.26828