ITEM: TIMESTEP
4000
ITEM: NUMBER OF ATOMS
8000
ITEM: BOX BOUNDS pp pp pp
0.0000000000000000e+00 1.8820720577620570e+01
0.0000000000000000e+00 1.8820720577620570e+01
0.0000000000000000e+00 3.7641441155241139e+01
ITEM: ATOMS id mass type x y z
7930 1 1 16.63 0.770836 1.97115
148 1 1 17.8526 2.93605 2.97393
445 1 1 3.91069 2.49729 2.45774
7604 1 1 1.94232 1.92767 0.556964
194 1 1 18.6664 1.29593 37.3197
350 1 1 7.85601 0.961042 36.5018
249 1 1 4.18994 0.965454 37.1983
7964 1 1 5.18073 1.98736 37.4175
1206 1 1 7.91444 2.1324 36.2629
487 1 1 4.42514 0.397364 2.75074
7416 1 1 6.62416 3.36847 35.6235
6017 1 1 9.00119 0.382377 0.813589
7680 1 1 7.86711 17.6931 33.6838
1196 1 1 7.15153 2.42824 35.5894
343 1 1 13.2538 18.5194 0.25064
7994 1 1 10.0067 1.53629 0.515336
6399 1 1 15.0063 14.7089 0.701959
7547 1 1 16.9102 17.5676 37.0253
383 1 1 15.7118 0.886715 3.10104
432 1 1 15.778 17.7172 36.2686
7265 1 1 0.944108 0.172038 0.940728
1964 1 1 16.0201 17.0375 36.9985
420 1 1 15.8644 0.490645 37.505
18 1 1 17.3575 3.37146 2.11934
7690 1 1 1.38807 2.72135 1.40575
402 1 1 3.68321 2.6344 0.924965
399 1 1 3.73069 1.23683 1.83023
7919 1 1 8.99446 3.17732 0.852793
6851 1 1 8.13184 1.35753 1.54666
7267 1 1 6.29443 0.352527 36.8542
886 1 1 9.80418 3.12005 2.24767
527 1 1 5.84372 4.2297 1.9993
529 1 1 10.1301 3.11085 0.652234
6703 1 1 9.15404 1.33186 1.07923
7287 1 1 12.3772 1.52031 3.05789
356 1 1 14.6563 1.03661 36.2518
6617 1 1 9.96107 16.7163 35.5148
1269 1 1 14.7536 0.542987 0.586282
1110 1 1 15.1715 17.8644 0.187166
508 1 1 18.3974 2.18093 37.4718
73 1 1 15.5174 4.95339 37.5162
7972 1 1 16.7572 5.38393 0.411968
75 1 1 17.3232 4.4035 1.04815
6152 1 1 2.90101 4.32489 1.39242
219 1 1 0.466156 4.42228 37.599
7236 1 1 1.40805 1.18998 36.7672
7661 1 1 4.43597 4.8264 4.36742
7284 1 1 4.85796 1.81231 1.93662
5739 1 1 8.5955 4.59457 2.84212
7261 1 1 0.895421 1.84133 1.34361
3 1 1 5.89641 2.57638 0.829111
7251 1 1 4.58898 4.18454 1.63618
7300 1 1 6.80661 3.87931 1.31796
7660 1 1 8.1713 1.61144 37.1467
7725 1 1 7.59297 2.45419 1.35755
6986 1 1 6.92637 2.31942 2.57881
1208 1 1 9.21577 2.5738 37.4071
2103 1 1 10.4542 6.94157 1.81662
6657 1 1 9.20247 4.79124 37.1152
7783 1 1 8.36434 0.162352 35.5738
7250 1 1 12.2728 3.62862 3.19835
6463 1 1 13.0084 5.52606 5.03315
505 1 1 10.7584 1.66523 1.62855
1380 1 1 11.6691 3.9607 0.618681
787 1 1 15.3412 1.48388 37.3932
500 1 1 13.2795 3.97257 37.4344
39 1 1 15.9258 3.42044 37.1786
7246 1 1 13.6249 3.33461 1.91595
2160 1 1 16.3089 3.90591 1.16856
7950 1 1 0.0045422 4.80957 3.12066
6823 1 1 18.5009 4.15217 36.3367
554 1 1 17.8285 2.68649 36.254
34 1 1 18.4609 6.10123 2.37887
479 1 1 4.14437 3.50838 2.41366
1885 1 1 3.65903 5.33734 0.782277
406 1 1 2.09541 5.19415 2.3603
1369 1 1 8.80649 4.9573 1.17631
7663 1 1 6.75847 5.98932 0.55534
497 1 1 7.12441 2.78102 0.193871
542 1 1 7.02449 7.27447 36.1598
228 1 1 8.76949 2.99117 36.4103
7010 1 1 10.8592 4.18177 1.29089
7611 1 1 10.7772 5.65493 1.59326
7422 1 1 10.2888 7.79229 2.48154
7468 1 1 14.9236 5.38129 1.80008
1109 1 1 13.469 4.63826 0.993488
461 1 1 13.3917 7.63081 0.908563
7444 1 1 15.9373 6.7985 2.96986
1718 1 1 18.8074 3.65104 3.1578
206 1 1 1.64673 6.43923 1.89242
323 1 1 7.76612 4.74918 1.01121
82 1 1 5.47633 6.2306 37.0124
835 1 1 4.32255 5.20922 1.56026
7803 1 1 7.21684 7.32201 0.835902
623 1 1 9.34368 7.18582 2.64173
796 1 1 7.69662 5.52172 0.412802
7002 1 1 9.24145 7.69222 1.64807
585 1 1 7.93316 6.61376 2.33471
7826 1 1 12.6079 9.85728 1.37109
7935 1 1 11.8028 7.6342 5.80843
6828 1 1 14.5736 4.87594 0.921747
7937 1 1 13.2992 6.66841 1.29859
308 1 1 17.6655 6.45428 4.85976
7758 1 1 15.3801 6.47144 1.95436
7432 1 1 15.3319 3.79563 0.851936
431 1 1 16.8666 6.28888 2.77914
6443 1 1 18.434 5.03341 5.01696
118 1 1 17.5702 9.18298 36.2455
884 1 1 0.474045 7.55838 36.6103
1751 1 1 1.26339 6.13233 37.499
7841 1 1 1.18039 7.34739 1.06165
15 1 1 5.79648 5.92664 1.11705
1314 1 1 1.63022 8.50875 1.45223
7879 1 1 6.90035 6.33169 1.78246
475 1 1 6.64199 6.1665 37.2485
7643 1 1 8.29463 8.34551 0.302089
7420 1 1 10.2576 7.72396 37.5091
7625 1 1 11.6926 5.40599 3.08028
53 1 1 9.44808 9.07532 1.40422
304 1 1 8.25451 8.38661 33.7583
697 1 1 9.34747 8.37793 2.42942
188 1 1 12.0279 8.75635 2.09495
193 1 1 13.0155 8.12947 2.48398
557 1 1 11.3387 6.60771 3.18208
1942 1 1 18.1609 8.41736 3.2612
205 1 1 16.14 5.70764 37.1877
7845 1 1 1.13581 10.2341 2.39206
7641 1 1 14.5659 6.86341 1.06089
7795 1 1 0.767791 8.80681 0.804316
444 1 1 18.4458 7.74225 0.986056
1547 1 1 2.55304 9.67898 37.2387
997 1 1 3.69321 8.54948 0.252814
7322 1 1 5.76996 7.10905 1.24019
573 1 1 5.47549 10.9076 35.7233
532 1 1 6.01444 8.1744 1.89429
1850 1 1 6.76081 8.1682 1.09864
615 1 1 10.3385 8.84532 1.93875
691 1 1 7.93268 11.6046 1.20301
7654 1 1 11.4553 8.66071 4.23319
6136 1 1 9.57223 8.21077 0.481038
7461 1 1 10.5329 8.83817 3.03779
498 1 1 14.1577 7.84141 2.15893
638 1 1 13.184 10.1548 3.10784
519 1 1 14.5103 8.56994 2.91706
223 1 1 15.4833 8.9228 1.47507
538 1 1 0.381393 8.82418 37.2015
165 1 1 16.882 7.28626 35.6904
190 1 1 18.2164 7.1527 1.89286
7867 1 1 16.4277 12.1337 1.90329
7897 1 1 3.85554 11.1151 0.522398
138 1 1 4.34854 9.14935 1.10675
647 1 1 3.40673 12.7768 2.04503
7967 1 1 3.14643 9.8914 1.76119
1048 1 1 6.39537 11.5695 36.2624
773 1 1 7.45765 11.6243 36.8114
1820 1 1 7.66242 10.1738 36.6139
534 1 1 9.01374 11.4519 36.5766
973 1 1 14.826 12.5697 0.59036
699 1 1 9.08613 11.2733 1.47049
7891 1 1 9.18625 9.81543 0.54646
250 1 1 11.173 11.6375 37.577
7452 1 1 14.0854 11.6726 0.413216
6669 1 1 10.7217 9.45119 0.0832619
1000 1 1 17.3191 7.34213 2.10724
6599 1 1 14.862 12.4084 2.92518
2234 1 1 16.2217 6.26855 36.0271
1040 1 1 16.9573 10.3332 36.2241
7991 1 1 15.6675 11.1371 36.0877
962 1 1 1.56208 12.6114 36.3425
1529 1 1 1.48407 14.5859 1.17914
6604 1 1 0.858123 11.5222 36.5752
203 1 1 3.52466 14.2053 0.697821
215 1 1 3.38011 12.8113 0.311825
7376 1 1 5.40166 11.9771 1.67744
331 1 1 5.26901 8.90319 1.21325
1010 1 1 3.89864 11.9243 37.2325
530 1 1 6.1799 10.0199 0.681575
7402 1 1 5.20333 11.6527 36.6022
7864 1 1 10.0235 10.2479 35.6244
344 1 1 6.87314 9.29621 3.90083
993 1 1 8.85652 12.2459 1.16884
381 1 1 13.208 12.9201 4.40492
2062 1 1 12.2723 11.5281 3.76056
660 1 1 8.75358 14.9035 0.411073
261 1 1 13.3758 12.1358 37.3694
6997 1 1 14.4646 9.78732 1.32539
6705 1 1 16.3272 9.54345 0.295863
230 1 1 16.4286 8.34355 1.15595
7348 1 1 14.8098 8.92609 37.5655
7022 1 1 16.3951 10.9545 0.204087
7470 1 1 18.0111 12.6036 37.2068
7479 1 1 17.8835 11.0983 35.3026
7888 1 1 18.5521 14.4727 1.15344
78 1 1 18.6758 14.6702 35.1178
6578 1 1 2.94153 12.0236 1.01189
1282 1 1 2.21007 13.8567 1.03863
85 1 1 2.55991 14.2593 3.18546
2755 1 1 2.07413 13.8175 37.5742
340 1 1 1.74911 11.5652 37.1578
1136 1 1 2.48046 15.5479 34.3509
1411 1 1 4.0104 14.1346 35.4059
6411 1 1 2.68995 15.028 37.0666
7487 1 1 4.8685 15.0395 4.52449
765 1 1 8.73211 11.6219 0.24762
7464 1 1 7.68043 13.7175 3.56606
7545 1 1 10.8662 12.411 2.38142
1178 1 1 7.61967 15.699 1.50014
307 1 1 12.3351 13.4808 37.5335
7834 1 1 13.5057 14.9662 0.652843
769 1 1 16.0201 11.5515 1.09355
237 1 1 16.0343 14.5909 0.204678
234 1 1 15.5454 11.6669 2.207
163 1 1 18.3745 14.5594 2.36764
7934 1 1 2.88062 16.6643 36.2996
7840 1 1 3.49306 14.8798 2.99863
7755 1 1 2.90695 13.1253 36.4494
813 1 1 5.32236 14.2182 0.118473
1729 1 1 5.82907 15.4352 0.886917
363 1 1 2.00685 16.1473 36.4648
7139 1 1 4.32721 13.6753 1.32327
7610 1 1 7.96343 13.59 0.120554
1573 1 1 6.73814 14.8498 37.6217
7543 1 1 6.51286 16.0621 1.33549
749 1 1 8.46122 16.2292 1.25046
1170 1 1 10.9294 15.5203 1.80779
7075 1 1 13.6881 12.4421 1.43084
6822 1 1 10.0449 17.679 0.838134
7634 1 1 12.6986 15.9794 37.0891
1042 1 1 15.7695 15.5454 2.31248
6720 1 1 17.3859 13.3413 2.4425
7903 1 1 18.6968 18.1331 1.53383
7968 1 1 2.06267 18.0244 1.65625
6919 1 1 0.581357 17.6397 36.6779
7180 1 1 5.69275 16.9471 1.52729
7581 1 1 4.13733 18.7624 1.61806
419 1 1 8.7312 15.9759 0.045492
7210 1 1 2.89384 18.4973 0.675438
7963 1 1 5.69797 15.781 35.1115
1485 1 1 4.73058 16.0638 3.1457
428 1 1 8.01741 16.9532 36.4142
287 1 1 7.52988 17.9668 0.405718
8 1 1 6.94805 13.5677 0.462764
338 1 1 7.73731 17.3018 37.3543
377 1 1 10.7712 15.8284 0.160033
7856 1 1 6.83258 16.1977 5.07813
7778 1 1 10.4512 17.2933 36.6412
6535 1 1 14.7989 15.1402 2.0421
7898 1 1 12.3211 16.2645 35.7775
7341 1 1 11.6974 15.6415 36.8394
7913 1 1 14.7928 13.803 37.3574
22 1 1 13.5644 14.9298 1.66868
7787 1 1 17.9238 16.4364 1.26767
5999 1 1 0.874402 17.8458 0.972927
7390 1 1 15.669 16.7794 0.624798
2134 1 1 1.29522 0.928621 0.306565
314 1 1 0.0629356 18.4331 0.45346
1146 1 1 2.10627 16.1515 2.80211
7081 1 1 1.94253 17.0017 36.9028
1327 1 1 3.00072 0.255409 1.74573
1895 1 1 4.95307 17.5667 0.736552
7212 1 1 2.07629 18.0913 36.5113
397 1 1 2.31642 18.2818 3.97853
37 1 1 6.74594 16.1919 35.7516
1257 1 1 3.92108 18.0026 0.80443
456 1 1 6.65885 18.2079 36.5466
391 1 1 6.70613 16.6139 3.4866
7698 1 1 7.56138 17.2987 2.24817
141 1 1 8.48161 16.2114 2.48418
7975 1 1 8.67723 15.0943 36.0285
700 1 1 10.17 18.8231 3.07452
820 1 1 14.109 15.6584 37.217
2661 1 1 13.6682 17.3685 0.0423059
437 1 1 12.9453 1.01721 37.1212
2020 1 1 11.9463 18.2579 2.10709
7224 1 1 13.4667 16.0223 36.077
7838 1 1 15.8969 17.4912 35.1185
7887 1 1 1.73019 18.2298 2.55758
785 1 1 18.6439 18.5602 4.06421
847 1 1 1.19602 0.185264 1.9687
1713 1 1 0.408818 2.96905 0.374606
7122 1 1 17.968 4.00488 3.67623
310 1 1 1.33654 0.714274 3.91329
727 1 1 2.80929 1.94552 3.81035
834 1 1 3.90934 17.1726 2.64646
105 1 1 3.86476 1.36197 4.49731
96 1 1 7.91134 0.815392 3.97105
1328 1 1 5.00359 16.8957 2.3338
7535 1 1 7.33477 0.0547969 4.19068
55 1 1 8.02218 18.7908 0.834286
1381 1 1 7.33409 0.26736 37.5801
2150 1 1 14.046 17.1785 3.07142
1336 1 1 14.8871 3.36108 3.02117
1213 1 1 12.4604 2.72123 2.16229
7478 1 1 11.4292 1.0342 3.01085
2153 1 1 16.6471 1.77736 6.09414
382 1 1 13.8485 0.554956 0.0788208
7844 1 1 14.8051 1.7003 2.77771
7293 1 1 16.8725 0.649855 0.76383
7647 1 1 2.18128 0.780429 2.64976
398 1 1 17.5858 1.61837 35.9071
1451 1 1 1.83574 18.3482 6.92134
1239 1 1 1.93228 3.40731 0.709769
2681 1 1 1.4109 1.73118 5.04863
603 1 1 2.79816 18.6308 5.91558
62 1 1 2.80179 4.44065 4.12354
7585 1 1 4.67179 1.86835 0.863205
94 1 1 9.07695 18.7841 3.43284
1168 1 1 6.09219 1.53184 0.711094
376 1 1 8.02854 4.15689 37.3722
528 1 1 10.9267 1.62528 3.68695
496 1 1 9.14554 18.2125 1.21292
824 1 1 8.83839 2.27931 4.36346
1333 1 1 10.5499 2.3295 37.6373
464 1 1 10.0269 4.86423 1.97436
7855 1 1 13.3225 15.7694 2.91402
6956 1 1 17.6497 1.48598 36.9157
1634 1 1 17.2949 1.4652 2.66295
1540 1 1 16.8292 1.75202 0.692224
430 1 1 2.17476 0.650046 5.62786
151 1 1 17.8338 2.49302 5.02001
155 1 1 0.650187 5.35261 5.28483
7366 1 1 1.63592 5.48577 1.32163
412 1 1 1.67875 3.38037 5.31187
324 1 1 2.74279 0.589863 36.762
2365 1 1 4.76452 3.88407 4.14276
547 1 1 2.33891 2.66289 5.58913
6648 1 1 18.464 3.09912 1.8507
7532 1 1 5.92779 3.09481 1.80687
1373 1 1 1.76556 2.3232 4.20039
1339 1 1 7.45459 1.29163 3.03537
239 1 1 9.13145 1.19145 3.98719
1308 1 1 10.9925 2.78492 4.71116
587 1 1 8.99805 2.25925 5.62971
7821 1 1 12.1975 0.609259 0.597293
1076 1 1 9.70536 5.46846 3.61918
2232 1 1 12.3524 4.43714 1.43263
537 1 1 15.9269 3.8939 2.45491
446 1 1 12.9291 3.43721 1.17516
1020 1 1 16.829 0.481732 4.1294
7776 1 1 15.8685 4.19274 3.60762
591 1 1 15.4193 3.76178 4.95711
780 1 1 15.4461 2.79601 5.22787
651 1 1 17.8121 4.86702 2.86783
7440 1 1 17.1462 2.2337 2.07107
1636 1 1 17.0812 2.48179 37.3611
68 1 1 0.140801 4.37132 1.1121
47 1 1 0.468293 0.889266 1.80421
580 1 1 2.35771 5.52455 3.68875
440 1 1 6.00804 5.42135 3.55832
6995 1 1 2.54274 2.52017 1.35458
7280 1 1 0.0525931 6.64392 36.523
7413 1 1 6.24126 1.11686 36.0884
7823 1 1 7.42016 5.98966 4.2808
1379 1 1 8.97847 5.31135 2.15383
6659 1 1 8.4821 3.57161 1.70249
1045 1 1 10.109 5.50645 0.543407
91 1 1 11.5698 4.33679 2.53032
173 1 1 11.4987 3.34007 3.87625
581 1 1 14.0449 4.15402 2.60856
1377 1 1 12.7228 4.86235 3.47674
1670 1 1 14.9425 2.71636 2.12352
958 1 1 13.8369 5.25327 3.07387
874 1 1 16.6059 2.59685 3.62629
924 1 1 0.40092 5.72324 0.802463
1158 1 1 3.48021 6.14191 2.81813
966 1 1 0.96058 3.99736 2.56518
983 1 1 3.97461 6.02165 3.91273
7028 1 1 3.58009 4.2067 4.7512
7944 1 1 3.76064 6.7421 1.20015
568 1 1 5.56075 4.7044 0.851625
488 1 1 8.10164 5.53668 3.327
1287 1 1 3.24428 5.1851 1.96288
1051 1 1 7.99849 6.66962 3.5352
1330 1 1 10.997 7.94783 1.67002
231 1 1 11.4487 9.24481 3.31911
1262 1 1 11.6029 7.4321 2.53441
107 1 1 15.0611 6.86839 0.110926
934 1 1 12.6711 6.01322 2.74689
7756 1 1 12.0839 8.04752 6.71594
1478 1 1 14.4878 8.14897 4.22901
6316 1 1 13.2278 6.80609 2.77895
2432 1 1 15.741 5.52764 2.8105
1265 1 1 1.2253 5.48217 2.85428
956 1 1 16.436 3.95912 36.3384
81 1 1 1.60768 4.69329 5.95831
560 1 1 17.7527 7.37342 7.14374
928 1 1 2.57354 6.44848 3.65502
959 1 1 0.273509 7.79615 3.3401
2110 1 1 0.78415 6.94625 1.84389
98 1 1 1.60021 6.25766 3.40208
1766 1 1 2.71028 6.55594 2.24354
1409 1 1 4.5203 5.17549 3.50447
7921 1 1 7.01763 7.4494 1.95007
541 1 1 6.39759 9.30237 2.04774
153 1 1 9.04894 6.63819 3.66275
1001 1 1 8.35725 9.00079 3.8656
241 1 1 10.5832 9.31595 3.90528
6627 1 1 9.53995 6.08988 4.48635
281 1 1 12.1804 6.58722 5.07484
1044 1 1 13.1215 3.43462 5.36611
1863 1 1 17.3276 8.85848 2.51051
7428 1 1 13.4106 7.98687 4.67179
944 1 1 13.2377 8.87899 3.73158
2197 1 1 13.7296 7.1553 3.73564
144 1 1 18.0682 6.16699 3.43255
536 1 1 17.1451 9.6131 1.49761
271 1 1 15.4085 7.98787 2.34875
1441 1 1 15.4471 7.71665 3.48522
1473 1 1 15.0093 4.16005 2.02861
6875 1 1 17.9793 8.30668 1.64531
238 1 1 0.414781 10.1544 4.61785
7308 1 1 16.3919 7.12654 5.59225
1318 1 1 0.349317 8.0587 1.76482
200 1 1 2.14388 11.2699 1.0877
1113 1 1 2.16254 7.40776 2.07408
478 1 1 4.95638 10.9694 3.94554
404 1 1 3.67165 10.7926 4.70306
114 1 1 3.61648 7.19839 3.72161
158 1 1 5.84269 7.00123 2.5023
222 1 1 3.40808 9.79867 0.640183
7482 1 1 3.56074 11.7969 2.20377
7791 1 1 5.30649 8.95256 3.2344
1450 1 1 7.65209 9.51735 0.408179
7335 1 1 8.36259 9.05108 0.955735
1532 1 1 8.75766 8.09271 5.54885
1906 1 1 10.9325 11.5682 1.37878
2065 1 1 8.5518 9.50766 2.11909
586 1 1 9.68687 15.3747 1.19561
7538 1 1 11.5124 11.3322 2.40043
1790 1 1 10.6902 8.8858 0.850573
7829 1 1 11.4611 10.4174 5.81486
6864 1 1 10.4448 13.0357 0.5519
610 1 1 12.309 10.9785 2.81436
1070 1 1 12.9777 5.86684 3.71564
618 1 1 12.5171 8.92068 4.4763
602 1 1 15.5953 5.79526 3.83426
1068 1 1 16.4637 9.41884 35.9705
1033 1 1 16.7253 10.8924 35.2442
84 1 1 0.265541 10.9008 0.471702
2154 1 1 17.1601 10.6565 37.1679
1360 1 1 0.719598 13.3416 37.5132
1003 1 1 4.44728 9.68829 3.86061
6563 1 1 2.61865 12.9048 4.23696
757 1 1 1.72859 13.8722 2.22404
1005 1 1 17.5178 12.3245 2.90838
1337 1 1 5.17352 13.8782 4.56811
1093 1 1 4.37628 9.99799 2.17217
571 1 1 7.90452 6.80992 4.68356
627 1 1 5.35044 9.6324 2.15922
1163 1 1 4.54438 12.5477 2.33013
1417 1 1 6.02366 12.5784 2.71988
1072 1 1 9.60268 11.4508 5.34872
1542 1 1 9.21387 12.0992 2.45293
2017 1 1 13.0732 11.8233 0.978224
379 1 1 15.5139 11.9425 37.3407
574 1 1 13.1314 12.3852 2.25326
276 1 1 13.2363 8.6904 1.45678
790 1 1 17.3005 10.6669 3.36584
7798 1 1 12.8492 10.419 5.79955
1631 1 1 17.1451 7.34554 3.32396
7474 1 1 0.320339 10.8273 1.78887
7249 1 1 1.89572 12.2088 2.15485
7451 1 1 0.126063 9.81504 0.29738
7525 1 1 0.992835 16.4409 0.825632
590 1 1 2.50337 10.4724 2.52823
7805 1 1 3.11228 11.2224 3.15535
7576 1 1 4.48159 11.3787 1.77499
374 1 1 6.49791 12.7552 1.78617
1061 1 1 5.85685 14.3284 5.17261
345 1 1 7.03449 10.054 3.02286
970 1 1 6.17778 11.4758 2.36686
286 1 1 10.0352 15.2385 2.2486
7851 1 1 12.4941 11.3616 1.67073
872 1 1 11.2332 13.6594 2.11329
7858 1 1 13.7289 12.1525 3.57133
1193 1 1 14.5363 10.499 0.516586
669 1 1 14.2364 11.274 4.74719
285 1 1 14.0714 10.7476 2.49403
4 1 1 18.1274 15.0283 36.1347
877 1 1 0.690618 11.7011 3.08964
1120 1 1 17.529 11.2666 0.470148
1116 1 1 18.4238 12.6647 0.605924
7849 1 1 0.533482 14.9879 1.62567
2037 1 1 2.7177 16.7269 34.8983
724 1 1 0.75515 13.3701 3.49201
154 1 1 5.04615 15.6271 1.57021
7503 1 1 7.30027 18.5334 2.10098
7004 1 1 7.72043 12.862 1.23832
687 1 1 6.78547 14.2034 6.01525
64 1 1 7.45474 12.9304 2.34144
1210 1 1 7.23522 13.8699 1.6102
256 1 1 10.7955 15.9503 3.56104
7436 1 1 11.0447 16.9061 4.45679
7489 1 1 10.7886 14.2202 1.13191
7550 1 1 11.3223 13.0471 3.10898
1537 1 1 13.4785 10.9545 3.92189
1107 1 1 15.1523 12.5399 4.04013
7052 1 1 16.2786 12.6414 3.25939
7993 1 1 16.1313 12.8359 4.29475
6750 1 1 14.8553 14.0625 2.31832
265 1 1 16.7533 11.7338 3.55755
6674 1 1 18.612 12.9836 4.1018
8000 1 1 3.03073 14.2593 1.66567
688 1 1 2.46564 13.0922 1.83729
1446 1 1 4.18667 16.8551 0.117318
1638 1 1 3.1197 15.6834 1.57308
1082 1 1 4.59642 15.7108 0.637182
336 1 1 1.56003 14.0919 3.77223
7613 1 1 6.13105 18.3609 2.93208
7562 1 1 8.68667 13.2934 5.16054
584 1 1 6.70968 14.9377 2.26768
277 1 1 7.16768 11.9733 1.98741
1226 1 1 10.2038 17.0913 5.31657
411 1 1 9.55255 14.9523 3.18069
1706 1 1 12.1087 14.662 2.27883
227 1 1 9.50123 13.7891 1.97297
7230 1 1 11.8364 16.4654 3.88335
425 1 1 16.349 14.7028 1.4705
6832 1 1 12.0262 12.1744 2.13099
375 1 1 16.8448 15.6402 2.83774
465 1 1 16.2189 15.8914 0.531168
7811 1 1 17.7974 15.9307 2.34521
6824 1 1 16.2271 13.2989 2.46218
2367 1 1 0.0992699 17.1061 2.53178
1173 1 1 2.0356 15.3368 4.02058
7188 1 1 0.402789 18.0666 2.85493
643 1 1 1.38929 15.7292 2.16191
7957 1 1 3.83934 16.9129 3.8295
7561 1 1 2.61598 15.1395 2.39754
795 1 1 2.87467 17.1238 1.17903
1453 1 1 4.29731 16.3818 1.52837
1908 1 1 8.20968 11.9574 2.08662
1047 1 1 7.18432 15.895 2.29193
937 1 1 5.76962 17.1757 2.90773
841 1 1 9.11056 17.4918 2.55694
7984 1 1 7.72257 14.6702 2.96125
1064 1 1 9.84802 16.2226 0.155351
1143 1 1 12.4916 15.8475 1.19069
7620 1 1 9.9995 14.0681 3.14866
31 1 1 14.3262 18.3835 0.0219288
501 1 1 13.2634 16.2833 0.410106
7779 1 1 11.4694 16.3569 1.31486
7040 1 1 12.4886 13.8778 2.95654
1590 1 1 14.8092 17.1201 2.14579
3499 1 1 14.186 17.0756 1.1368
6905 1 1 16.6162 15.8431 1.6314
40 1 1 0.203484 17.875 4.87747
809 1 1 1.65509 16.3901 3.84862
1086 1 1 0.94383 15.6703 3.44983
325 1 1 4.07792 13.7874 3.29946
682 1 1 1.67125 16.8519 1.67287
7119 1 1 4.94904 18.1187 2.70855
43 1 1 6.61783 17.3803 1.21532
2026 1 1 5.99656 0.246768 0.659385
814 1 1 9.82849 -0.0515522 1.62502
7508 1 1 11.466 17.2113 0.616356
7349 1 1 9.63651 1.43924 37.1402
781 1 1 10.3117 16.7774 2.90302
6027 1 1 10.3821 16.5382 1.81802
1229 1 1 14.9432 1.2935 3.69874
708 1 1 11.321 17.5529 1.70381
2038 1 1 13.3451 16.614 1.40797
33 1 1 17.2054 17.9481 1.91895
1200 1 1 17.289 16.9397 2.73502
845 1 1 2.28785 1.20267 4.42575
1930 1 1 3.54816 2.98855 4.44602
480 1 1 5.2518 0.686528 2.13433
1514 1 1 3.40765 17.7509 3.72808
1461 1 1 4.29112 17.8837 4.65013
7926 1 1 5.93024 16.2459 2.1562
605 1 1 7.19886 0.443498 1.04165
1687 1 1 9.3224 17.7505 3.94143
7745 1 1 11.0443 18.2725 2.71225
7580 1 1 12.8942 18.2891 5.49257
7656 1 1 12.8597 16.6653 5.10188
1270 1 1 15.3203 18.7005 5.22977
7 1 1 16.7908 17.7911 3.03834
7601 1 1 18.1576 0.282201 4.91619
109 1 1 18.7427 1.81996 5.08958
7848 1 1 2.22047 1.95505 8.23202
1205 1 1 0.435206 0.924355 4.72303
799 1 1 4.85492 5.40279 7.18744
7896 1 1 5.64136 0.84703 5.37211
450 1 1 6.91665 1.09153 1.97667
7715 1 1 6.16835 17.4914 6.81087
1331 1 1 5.05256 3.89845 2.87691
7700 1 1 9.44012 16.0632 1.8966
7785 1 1 9.36337 1.7359 2.03912
7616 1 1 9.74502 0.892336 3.10023
385 1 1 10.4213 1.83417 2.7351
890 1 1 9.14507 3.4659 3.94919
149 1 1 14.7207 18.4184 3.79259
576 1 1 15.6845 0.11014 2.31594
1992 1 1 13.8435 1.33985 3.29959
1785 1 1 15.3421 17.3839 1.29645
946 1 1 14.2803 0.970918 4.44177
1037 1 1 14.5646 2.55005 0.541696
1203 1 1 12.5605 2.38944 4.63648
2099 1 1 16.8282 0.54012 6.10588
525 1 1 16.7072 18.7504 1.49558
7914 1 1 15.3461 0.554787 4.22021
283 1 1 18.5124 2.37838 6.05902
1602 1 1 4.40643 2.31215 6.19491
139 1 1 0.672879 3.19481 5.73766
1194 1 1 3.07478 5.16543 6.2253
729 1 1 4.7389 5.36588 5.53247
7996 1 1 6.62901 0.492547 2.76405
656 1 1 4.39709 3.04639 5.19406
2046 1 1 5.78101 2.24909 2.3594
611 1 1 4.97416 2.84787 2.25336
209 1 1 8.2003 1.23949 4.93674
936 1 1 4.42809 3.04769 3.31704
1776 1 1 6.56889 0.0495404 5.13834
887 1 1 10.746 0.586557 2.15677
1378 1 1 7.84191 3.04627 3.60962
1416 1 1 8.80389 3.64681 2.93219
1344 1 1 13.4197 1.02626 2.53429
906 1 1 13.9805 2.59134 2.96411
7827 1 1 14.2132 3.15682 5.21953
2323 1 1 16.2285 2.23788 4.59714
2471 1 1 0.834324 18.6307 3.69219
552 1 1 0.248812 1.16658 3.53623
745 1 1 18.3919 1.24509 1.48449
2071 1 1 17.8113 5.15695 4.11695
1717 1 1 1.44664 4.97005 4.41611
1202 1 1 4.00679 4.23783 3.33437
7754 1 1 4.52694 1.92242 3.57468
7648 1 1 6.93942 3.41367 3.46718
1376 1 1 5.60204 3.08492 3.34176
604 1 1 4.16402 5.94812 6.61448
566 1 1 8.60745 1.89087 2.65587
2348 1 1 7.64243 3.07771 2.3303
1466 1 1 7.89319 5.70278 1.91631
2126 1 1 8.10555 1.94986 3.7979
156 1 1 9.39053 3.88973 5.87609
469 1 1 9.15371 4.56936 4.00626
636 1 1 15.4378 2.56592 3.46789
387 1 1 11.9936 6.36013 3.96351
6762 1 1 17.3081 5.18241 1.62073
1231 1 1 18.2418 2.16141 2.17642
6804 1 1 0.984476 4.38904 5.20096
2357 1 1 15.9821 4.91716 1.18705
913 1 1 0.537634 5.95022 3.77645
1316 1 1 17.94 5.92264 6.82492
912 1 1 5.06471 7.59331 4.83853
6975 1 1 1.59442 4.14928 3.53649
1802 1 1 5.27115 6.58912 5.36932
454 1 1 8.27426 5.05891 4.72631
358 1 1 5.40704 4.66405 3.69519
7096 1 1 9.40416 6.09286 2.83494
582 1 1 10.4067 3.14858 6.15611
7904 1 1 11.5992 6.19044 2.2987
1759 1 1 10.2979 6.78375 3.17276
401 1 1 12.6186 5.62984 7.3229
908 1 1 14.6815 6.13205 5.62189
1793 1 1 18.307 7.10913 3.03322
1709 1 1 18.3583 6.93284 4.09223
7228 1 1 17.6071 4.8936 5.52578
752 1 1 0.121742 6.14869 6.15353
481 1 1 0.533559 6.95781 3.71767
1399 1 1 0.752325 7.92542 4.82594
1443 1 1 2.48308 5.9952 4.74531
45 1 1 5.87673 7.40062 4.23831
996 1 1 0.819746 8.92959 2.51023
7651 1 1 1.49273 6.14343 5.59715
1405 1 1 5.30641 8.47948 5.14385
661 1 1 7.86316 4.46212 2.08319
177 1 1 8.46554 5.91163 4.35962
1301 1 1 7.48983 7.47206 2.98942
1609 1 1 7.32562 8.3564 4.72821
462 1 1 10.3472 9.02965 4.99926
7743 1 1 9.30901 4.85209 6.31017
74 1 1 11.2055 7.84753 4.75311
551 1 1 10.3457 7.67748 6.19221
1822 1 1 9.75791 6.85278 6.85082
556 1 1 14.0699 9.61791 4.386
1939 1 1 14.8699 6.46354 3.9978
2594 1 1 16.5857 6.09016 6.00785
1728 1 1 18.2619 9.58015 1.53651
1396 1 1 17.6647 5.09294 7.57812
1128 1 1 1.95733 12.0106 3.8486
175 1 1 3.99652 7.9203 1.0838
1419 1 1 3.90907 11.1297 6.39216
925 1 1 4.6658 10.9982 2.76433
1475 1 1 3.98237 8.00094 4.349
896 1 1 2.74663 13.1286 5.22577
7862 1 1 6.4569 7.8506 2.8468
7953 1 1 9.26265 9.33646 2.87525
955 1 1 9.21547 10.0781 1.81587
1217 1 1 8.45895 10.3129 1.04154
7334 1 1 8.11461 6.58215 8.6194
232 1 1 11.4248 11.1018 4.88752
1833 1 1 12.317 6.95266 2.06634
253 1 1 14.5791 10.2545 5.05097
600 1 1 17.4042 10.2108 4.41251
1422 1 1 14.2313 9.46294 3.30751
108 1 1 16.1407 9.79265 4.17689
1498 1 1 11.0918 8.80931 5.58171
1715 1 1 16.3646 8.55101 3.24069
914 1 1 16.7733 5.71179 4.95092
146 1 1 16.9924 10.768 1.70558
1350 1 1 17.1366 9.27735 3.7389
7397 1 1 16.2349 10.1653 1.40905
1798 1 1 18.7196 6.80339 6.88049
1637 1 1 17.986 10.6559 2.29239
6972 1 1 18.1566 9.38866 2.97375
1878 1 1 2.63946 11.0725 4.23698
393 1 1 0.497203 14.5318 3.34162
6683 1 1 3.95449 11.2753 3.87185
201 1 1 6.54241 12.6667 4.58537
1427 1 1 5.70773 6.68191 3.44953
1135 1 1 6.57655 11.4928 4.92654
1177 1 1 6.97897 8.01712 3.72895
825 1 1 6.55107 10.2668 1.67493
3250 1 1 8.53416 10.2615 3.42095
1112 1 1 11.496 12.0091 3.29399
622 1 1 10.9987 12.1301 5.26488
1825 1 1 8.89226 11.381 3.4252
526 1 1 13.1982 9.59844 6.40859
2244 1 1 11.5926 9.7872 4.42224
162 1 1 14.3942 8.90974 6.63488
1676 1 1 13.5121 12.2456 5.13584
1827 1 1 16.6239 9.08612 6.04216
960 1 1 15.3085 9.13368 2.51959
7603 1 1 0.0994068 10.6154 3.75365
648 1 1 16.6922 11.6278 36.8851
715 1 1 1.72605 11.3867 2.77605
967 1 1 1.09457 12.6818 2.22939
1486 1 1 3.52732 12.4108 4.02528
52 1 1 4.58156 13.3336 5.9548
690 1 1 6.0874 10.6621 4.41365
216 1 1 4.1774 12.7834 5.00955
2215 1 1 6.78951 13.7475 4.70134
290 1 1 7.02468 11.5246 3.10159
1175 1 1 10.4907 11.2266 3.19956
1069 1 1 7.64281 10.3274 4.11916
1046 1 1 7.08701 12.8785 3.70372
678 1 1 14.2707 11.0104 5.77692
1757 1 1 14.3069 12.8251 4.79254
683 1 1 14.6918 12.0632 1.85629
235 1 1 15.572 11.8084 3.38289
7350 1 1 18.4617 13.1324 1.66984
306 1 1 18.19 13.5164 3.16466
7480 1 1 17.0147 11.5002 2.5528
629 1 1 16.1641 14.0448 4.78421
300 1 1 18.3261 11.7995 2.20328
712 1 1 17.6338 13.0403 4.221
1078 1 1 18.8061 13.5367 5.88278
7403 1 1 5.44904 13.7798 2.14388
6379 1 1 5.15626 14.6146 1.19574
1504 1 1 5.76749 13.1164 3.78172
815 1 1 6.87387 13.8135 2.82328
6979 1 1 5.12804 14.2152 5.99908
1512 1 1 7.00903 11.0037 0.315246
2425 1 1 8.91603 13.6377 4.1713
1139 1 1 10.7732 15.5983 4.64678
468 1 1 10.0201 14.5083 4.27882
1912 1 1 7.03752 15.5548 3.54421
572 1 1 7.69361 13.0874 4.43299
1533 1 1 13.0045 10.5353 2.22198
1187 1 1 12.5217 13.7404 4.02428
7853 1 1 15.5668 14.1502 1.33176
7893 1 1 13.5716 15.4845 6.98398
670 1 1 17.2259 14.2476 3.08191
1958 1 1 3.51314 13.3887 4.35029
844 1 1 18.735 15.0247 4.56926
853 1 1 18.0975 14.6978 3.45758
1561 1 1 3.63172 13.6541 2.46205
663 1 1 1.04569 13.6254 4.58
1531 1 1 4.27913 14.8501 1.9648
902 1 1 3.40308 15.9848 2.90384
1266 1 1 6.3928 14.5963 3.82777
734 1 1 6.75664 14.9539 1.08531
1545 1 1 8.95749 13.0948 3.00555
317 1 1 12.841 15.5445 4.84513
460 1 1 9.9588 16.765 4.31489
7704 1 1 13.1381 13.9891 1.34039
7146 1 1 16.5281 10.1326 5.90562
990 1 1 17.3983 17.2695 4.25911
443 1 1 16.7927 16.4827 4.14694
1087 1 1 16.5224 14.7867 3.9337
1526 1 1 3.44541 14.431 4.37737
1689 1 1 1.89218 16.0472 4.76441
812 1 1 1.36269 18.4166 6.04992
1198 1 1 1.84813 17.4183 4.19027
800 1 1 1.15907 14.6947 5.71259
816 1 1 3.11713 1.64164 1.17201
861 1 1 1.1415 16.0888 5.83525
860 1 1 3.25055 0.0859346 2.75213
1179 1 1 5.18424 15.9471 4.25801
7123 1 1 5.02622 1.10093 4.11053
2824 1 1 5.85595 18.5291 1.96266
7627 1 1 9.34728 16.5567 5.58628
504 1 1 8.09621 14.5453 4.04572
260 1 1 5.16539 14.9517 3.49276
384 1 1 8.61539 15.8831 4.6705
423 1 1 12.1995 15.903 2.737
1579 1 1 13.3011 14.6452 4.866
1541 1 1 11.5734 16.083 5.15998
7990 1 1 10.8245 14.4634 2.56484
818 1 1 12.8709 16.6694 3.4063
7911 1 1 15.6924 18.6235 3.34702
7635 1 1 14.1272 14.1907 1.09791
1474 1 1 15.7633 15.8014 3.79361
1406 1 1 17.0622 17.4187 5.82668
278 1 1 17.9026 17.6639 6.44735
1149 1 1 17.7655 16.1461 4.02693
843 1 1 17.2461 17.9623 0.748289
1569 1 1 1.84357 18.0705 0.350652
686 1 1 2.37947 16.9661 4.97116
728 1 1 2.82034 16.9493 3.46806
1140 1 1 2.80501 16.5837 2.04713
115 1 1 1.87486 2.49299 2.44673
1932 1 1 6.32823 15.8275 4.17531
888 1 1 3.15111 16.2958 4.35504
293 1 1 5.31155 0.243295 3.13558
171 1 1 7.2312 16.8649 4.37486
7619 1 1 7.56926 0.177129 2.99909
1131 1 1 8.76217 17.3988 5.84257
1133 1 1 11.3582 17.3066 2.75527
421 1 1 13.835 -0.00222828 2.49945
224 1 1 11.064 18.4559 1.06815
390 1 1 8.99661 18.5847 4.45188
7987 1 1 12.3895 16.9119 2.21752
7938 1 1 13.2862 0.184713 1.15548
7149 1 1 14.1054 18.4036 1.25384
948 1 1 12.6829 16.8659 6.5068
427 1 1 18.0197 18.0722 3.40375
822 1 1 17.9373 17.8675 5.07352
1554 1 1 17.3985 16.6508 6.34248
328 1 1 17.8928 0.654898 2.15166
915 1 1 2.67779 0.602052 3.60133
7197 1 1 5.03147 17.7061 3.73279
1643 1 1 0.422976 1.169 7.11951
2285 1 1 4.22286 18.3601 3.7089
1488 1 1 5.51583 0.159384 4.33162
767 1 1 4.33252 16.6559 5.42006
248 1 1 5.79827 18.1117 5.00386
7678 1 1 7.49572 16.6956 1.40708
7524 1 1 5.0818 0.36986 7.06739
2140 1 1 6.82772 0.545922 6.99434
41 1 1 6.23941 17.2376 5.56867
14 1 1 8.95975 18.6506 6.22852
6673 1 1 11.1232 0.0748982 3.53931
1582 1 1 8.48442 17.7196 1.73752
947 1 1 7.54358 3.68351 6.43105
671 1 1 13.3448 1.15714 4.31629
2109 1 1 13.554 18.5974 6.39026
7549 1 1 14.8908 0.353506 3.09431
1999 1 1 14.7814 0.72997 5.31755
3146 1 1 17.5932 1.11181 5.9097
1591 1 1 17.5008 2.25279 6.01049
558 1 1 17.5102 0.486526 3.362
869 1 1 15.8032 18.6148 6.30407
867 1 1 1.49187 3.2729 6.87085
1319 1 1 2.60158 17.6718 6.06142
1129 1 1 2.10491 1.67332 5.96273
1197 1 1 2.3946 2.96372 6.53584
6767 1 1 6.3176 3.29108 2.65006
1675 1 1 5.74057 0.163881 6.27799
2136 1 1 4.8081 18.6966 5.47972
104 1 1 3.83793 0.5129 6.38185
885 1 1 10.692 17.5518 3.47911
7762 1 1 7.52629 0.47911 5.48037
7997 1 1 9.72856 0.868948 5.73993
3337 1 1 9.36219 1.50402 5.03302
1658 1 1 8.87381 0.074639 1.9458
7989 1 1 10.9371 0.864819 5.39967
616 1 1 10.9002 17.9233 4.63941
32 1 1 12.707 3.58172 4.46462
859 1 1 13.4869 0.0975566 4.79518
1345 1 1 15.2169 2.06173 4.56885
2392 1 1 15.2068 4.98357 4.674
7044 1 1 15.8494 1.85815 5.53568
157 1 1 16.7796 3.1118 6.51001
1223 1 1 17.8692 1.27827 4.10354
119 1 1 15.7499 0.748945 5.94533
509 1 1 1.31239 2.06088 6.16931
792 1 1 2.88874 4.11762 6.57449
1325 1 1 5.51695 2.55128 6.68067
910 1 1 3.92795 5.97262 7.70712
441 1 1 4.23062 4.41812 6.51151
951 1 1 5.27851 2.0333 5.51136
1608 1 1 2.58588 3.5449 9.99438
2208 1 1 8.39672 2.50593 6.36754
455 1 1 6.701 3.05228 6.38712
1375 1 1 7.48201 2.97589 7.22407
1255 1 1 6.87428 3.40155 4.5114
588 1 1 7.30526 1.99313 6.30651
2094 1 1 8.56907 1.91861 7.5567
593 1 1 9.23521 2.04812 3.33445
1749 1 1 10.4253 1.61405 4.65303
511 1 1 15.2336 1.5487 1.70291
180 1 1 11.876 1.93574 4.07499
140 1 1 10.625 4.4241 3.84449
1317 1 1 11.195 1.86938 5.22833
1309 1 1 8.1673 4.2429 3.79746
850 1 1 13.7911 4.5684 4.08283
870 1 1 13.7971 1.0569 5.67554
7712 1 1 14.1334 5.48915 4.95156
1413 1 1 16.4348 3.24182 4.52868
1338 1 1 17.5839 4.01311 4.85302
486 1 1 16.4031 4.29331 6.33529
954 1 1 0.890013 2.64351 4.72341
756 1 1 0.836443 4.55403 8.68192
2558 1 1 2.08626 3.90166 8.00885
1543 1 1 3.27709 5.83623 5.43187
1538 1 1 0.596362 6.69049 4.90387
1355 1 1 5.22587 2.28562 4.3804
1852 1 1 6.53834 2.24143 4.36407
7843 1 1 6.98652 3.51936 5.49713
1299 1 1 5.32614 3.59553 6.37265
252 1 1 9.53983 3.83678 7.97716
1098 1 1 8.59908 6.75711 6.97292
2139 1 1 11.3411 3.55191 5.62291
211 1 1 6.60833 6.13339 6.48081