ITEM: TIMESTEP
500
ITEM: NUMBER OF ATOMS
8000
ITEM: BOX BOUNDS pp pp pp
0.0000000000000000e+00 1.8820720577620570e+01
0.0000000000000000e+00 1.8820720577620570e+01
0.0000000000000000e+00 3.7641441155241139e+01
ITEM: ATOMS id mass type x y z
547 1 1 0.264836 18.7019 1.49807
835 1 1 1.42817 2.13322 0.786608
319 1 1 2.96484 0.667275 0.808014
96 1 1 1.95935 1.09689 0.837269
917 1 1 3.77925 1.95393 1.12086
796 1 1 4.28615 3.48114 1.8002
38 1 1 6.33753 2.19945 0.953906
696 1 1 5.69629 0.978543 0.700541
775 1 1 6.52365 1.97988 37.5563
1208 1 1 7.00969 1.08618 0.52457
1178 1 1 6.38727 0.0191912 0.423969
7287 1 1 9.50567 1.58216 1.15388
814 1 1 10.9562 1.59578 0.933169
838 1 1 10.8855 2.24104 2.95573
7861 1 1 11.3779 18.611 1.71044
7938 1 1 13.7977 0.761856 1.94318
116 1 1 12.2177 1.27566 36.8071
501 1 1 12.817 1.57101 2.05347
7230 1 1 15.6477 17.1651 37.1267
7549 1 1 14.3814 0.719472 0.699776
1142 1 1 16.6707 1.25215 0.98267
7560 1 1 17.5587 0.609115 0.599282
34 1 1 18.7009 0.901509 2.60919
753 1 1 17.0288 16.8802 0.963329
430 1 1 18.2168 1.86991 0.97529
109 1 1 2.24841 1.96882 1.26676
1675 1 1 2.78286 1.57067 3.61109
475 1 1 3.04333 3.46827 1.9523
1160 1 1 2.69089 2.09035 0.278223
1319 1 1 2.64639 2.8529 3.2104
841 1 1 5.05953 2.82563 1.97131
7316 1 1 3.44401 2.70071 0.148567
493 1 1 4.98373 1.34365 0.161859
405 1 1 6.6144 0.974821 1.9911
5 1 1 9.40201 1.89236 0.147465
7646 1 1 7.54774 1.53368 1.51858
7 1 1 9.75599 2.88658 1.27539
17 1 1 8.74647 1.37393 37.1593
1385 1 1 10.1895 0.779366 2.09001
421 1 1 11.9025 1.26473 1.51689
18 1 1 9.5516 1.64086 36.7069
1270 1 1 13.0149 2.19121 0.792933
149 1 1 13.8065 2.77508 37.4304
7987 1 1 15.5035 0.605884 0.86576
113 1 1 15.7273 1.70157 0.883132
39 1 1 14.5912 1.91142 0.424618
746 1 1 18.2207 2.72691 0.252586
7601 1 1 18.0879 2.79993 1.49507
7633 1 1 0.356936 1.83255 0.351196
2432 1 1 1.42125 3.21677 0.708042
1237 1 1 1.37505 2.53767 37.0737
209 1 1 2.13262 4.0433 1.2831
7647 1 1 1.01535 3.89905 1.81848
7253 1 1 4.50756 3.01498 2.96446
1239 1 1 4.06458 4.01895 2.64168
7607 1 1 3.11068 3.87367 3.15554
7644 1 1 7.45766 2.59626 0.851673
6856 1 1 6.66982 3.45249 36.9521
455 1 1 5.22639 4.17166 1.24547
7699 1 1 7.88446 4.49598 0.950401
765 1 1 7.82051 2.74824 1.86484
633 1 1 9.49355 3.95409 37.4055
1295 1 1 8.89303 2.48393 0.993525
779 1 1 11.1556 4.99173 0.359522
385 1 1 10.3447 3.50938 0.575312
461 1 1 12.9176 3.5361 0.779834
7303 1 1 10.3454 2.2379 37.2001
508 1 1 14.8408 4.01393 0.655764
978 1 1 14.234 6.85317 0.396824
65 1 1 16.3541 3.02525 0.55037
420 1 1 17.229 3.90001 3.31899
7636 1 1 16.5969 2.08216 0.384265
786 1 1 18.0918 4.78063 36.976
356 1 1 17.1405 3.13279 1.25585
479 1 1 0.537602 5.30873 37.6329
6956 1 1 18.2971 6.94356 37.259
324 1 1 0.615405 3.89596 0.848351
362 1 1 0.829535 6.78066 1.60243
488 1 1 3.30558 5.37742 1.4064
886 1 1 5.50327 6.57277 2.71438
445 1 1 4.04257 5.8626 0.636112
3 1 1 5.236 5.29048 1.15126
1327 1 1 5.89595 4.37793 2.52486
7250 1 1 7.08501 4.63722 2.70226
1310 1 1 7.02686 5.65098 36.4603
1026 1 1 7.31272 6.28126 0.670478
533 1 1 8.33796 6.66217 35.6711
171 1 1 8.33437 5.92272 0.494276
938 1 1 10.2405 4.48234 36.6727
7002 1 1 9.72762 5.31333 0.392366
934 1 1 10.044 4.21845 1.46374
505 1 1 14.3642 6.09009 1.22648
1309 1 1 14.2059 4.42208 1.33384
7855 1 1 12.6732 4.68893 1.13316
7392 1 1 14.8113 5.18856 36.321
7603 1 1 16.6059 6.35715 1.7791
2197 1 1 15.8195 4.59018 0.579572
111 1 1 14.9121 5.12238 0.191133
442 1 1 18.1328 5.42505 0.4757
478 1 1 1.19191 5.75557 0.740511
7249 1 1 1.61666 6.62211 37.3083
440 1 1 3.4143 6.50672 37.6144
528 1 1 4.66799 5.78432 3.22992
1461 1 1 6.29437 5.59249 2.72708
1366 1 1 4.45911 7.69755 0.108599
7819 1 1 6.29183 8.83347 0.792777
7731 1 1 5.78097 7.84407 0.693938
1417 1 1 6.91057 6.78142 2.03505
7659 1 1 7.37147 7.1781 1.19232
537 1 1 10.7059 6.0587 0.252972
623 1 1 10.5038 5.66806 1.17982
973 1 1 10.0728 7.28435 0.639994
538 1 1 13.0123 6.85109 0.382324
591 1 1 11.5921 5.76858 1.30222
7591 1 1 13.237 5.73127 1.14096
68 1 1 15.6992 5.96834 1.58169
579 1 1 15.2733 7.38865 36.8787
7754 1 1 17.3887 6.58277 0.857686
554 1 1 15.3621 7.15378 2.3854
7641 1 1 0.109389 6.24828 0.937912
159 1 1 15.3514 7.93337 1.87288
7879 1 1 1.48348 8.28525 37.11
7239 1 1 1.82863 8.11537 35.4356
580 1 1 2.56466 7.34273 0.998417
1369 1 1 2.50869 4.95835 0.347251
1048 1 1 3.28273 8.37339 1.7362
6896 1 1 4.63251 7.8004 2.19831
653 1 1 7.45656 8.20962 1.01642
647 1 1 6.29558 9.11997 1.76265
539 1 1 8.19608 8.96608 1.85305
137 1 1 7.72473 8.79185 36.4917
228 1 1 10.9674 8.75617 1.33146
1422 1 1 12.4841 8.22811 2.50387
575 1 1 11.6927 7.73112 1.86131
462 1 1 11.4571 6.89418 1.40054
585 1 1 11.8675 7.67767 37.6
532 1 1 12.1689 8.83103 0.149397
7432 1 1 13.38 8.23053 2.95426
7821 1 1 11.3514 3.68856 0.580835
7776 1 1 12.4131 5.68054 2.07048
188 1 1 12.6386 7.53467 1.06396
556 1 1 14.582 7.12763 1.46405
1031 1 1 14.1869 8.40673 36.5385
519 1 1 17.4608 8.08946 37.6121
1473 1 1 15.5107 7.03808 0.843663
187 1 1 15.9508 5.84185 0.351182
959 1 1 0.466174 8.22832 0.797006
7924 1 1 0.39528 8.64695 37.3909
7841 1 1 1.83519 9.31436 1.23083
197 1 1 1.49402 8.15639 0.666136
1314 1 1 1.97589 9.17562 0.219916
164 1 1 2.45357 8.43671 0.854683
1053 1 1 4.60933 9.63593 1.35283
215 1 1 5.11649 8.91718 0.830922
300 1 1 3.12656 10.2945 1.76082
7748 1 1 7.30388 9.7937 2.41376
7011 1 1 7.17582 10.664 0.0414079
645 1 1 5.03854 11.1217 0.513191
95 1 1 8.94874 9.4108 0.772222
618 1 1 9.0408 7.70241 1.50284
178 1 1 10.3354 8.72659 0.361773
91 1 1 11.534 8.75552 2.1514
7772 1 1 12.4203 9.8044 37.4939
607 1 1 12.2573 10.4861 35.6564
7912 1 1 12.9084 8.26065 37.3844
223 1 1 13.2265 11.2837 2.02423
230 1 1 13.518 10.1312 36.8751
444 1 1 15.7358 10.2163 1.62118
1072 1 1 15.725 8.37153 3.21347
636 1 1 14.1874 9.08974 2.57839
114 1 1 16.8914 11.5282 0.115639
183 1 1 16.5779 9.71447 1.2203
7758 1 1 18.3295 8.73553 2.06861
281 1 1 18.2229 9.95351 0.725909
7525 1 1 0.132606 9.22745 1.33774
962 1 1 0.900061 10.3045 37.4272
7849 1 1 1.89402 10.147 37.2152
7854 1 1 3.73843 10.2067 0.479407
243 1 1 3.67738 11.419 0.721756
7891 1 1 6.20795 11.723 0.219597
7541 1 1 5.45948 11.6708 36.9579
7822 1 1 6.44362 10.4199 2.56855
1148 1 1 7.34844 11.6071 0.647601
7864 1 1 9.78882 11.9488 37.1106
7862 1 1 7.99452 10.035 0.743815
1105 1 1 11.1575 11.0482 3.78368
1979 1 1 9.91397 11.1352 0.0528369
142 1 1 11.4976 10.8225 0.338656
7904 1 1 12.7332 8.49993 1.5012
993 1 1 13.0244 9.18397 0.524458
1507 1 1 13.1317 12.5846 3.73399
235 1 1 12.6915 10.099 2.04707
6316 1 1 13.6584 10.7732 0.706703
7480 1 1 16.7925 10.871 1.93193
6675 1 1 14.0105 9.49164 37.4515
144 1 1 14.7434 9.26727 0.687486
6997 1 1 16.5248 10.5181 0.60692
7350 1 1 1.1169 10.7349 0.676252
238 1 1 17.8766 10.6365 37.4801
1282 1 1 2.17651 13.4482 1.36646
1136 1 1 4.36791 13.2427 0.389269
685 1 1 2.76565 12.7507 1.93984
7847 1 1 5.65736 12.4324 0.771298
175 1 1 4.55279 11.9085 2.89255
296 1 1 6.81588 12.9467 0.264491
970 1 1 7.15432 12.0803 37.3365
7499 1 1 8.1142 11.8847 36.5687
1102 1 1 7.69766 12.1988 1.3832
1509 1 1 9.17379 12.678 0.860793
660 1 1 10.4045 12.8752 37.3059
7516 1 1 11.7638 13.2425 0.122345
333 1 1 12.545 11.1892 0.0121611
1100 1 1 12.5626 12.3105 0.589363
7777 1 1 12.8517 12.1613 37.2028
1182 1 1 14.1004 13.4281 37.5206
271 1 1 13.1752 12.2735 2.558
7512 1 1 13.7316 11.6921 37.4153
683 1 1 14.3504 12.0043 1.16238
285 1 1 15.1234 13.0941 0.803679
280 1 1 15.8658 11.6896 0.233855
4 1 1 17.6076 10.8794 0.978631
237 1 1 18.31 12.1371 3.42824
7880 1 1 18.5868 11.155 1.02333
648 1 1 1.04601 13.8828 1.93736
202 1 1 2.80436 11.1491 1.27158
7921 1 1 1.93624 13.7098 2.39789
1173 1 1 2.16538 14.4105 1.53153
246 1 1 2.77929 13.0503 36.786
7817 1 1 3.41555 11.5412 1.95107
290 1 1 4.17632 13.9804 1.48809
7535 1 1 4.81192 14.1449 37.5963
287 1 1 6.53312 12.3075 1.42249
229 1 1 8.07306 13.3687 0.890946
1070 1 1 8.91292 13.9812 0.872125
1573 1 1 8.54149 14.8415 37.4936
1908 1 1 9.29714 13.4439 2.16504
7502 1 1 9.46273 14.3859 37.5101
7610 1 1 8.42271 14.7816 1.3599
7983 1 1 10.4989 14.1707 36.0961
1069 1 1 12.352 13.9099 0.609562
204 1 1 17.6678 13.666 0.359165
1108 1 1 17.713 12.686 2.29763
6746 1 1 16.5747 14.211 35.0969
154 1 1 0.122179 12.6299 2.49484
194 1 1 0.119966 16.5862 0.76619
873 1 1 0.536909 15.2431 0.243965
1529 1 1 2.18822 15.4343 0.551095
7574 1 1 3.87288 14.4633 37.3163
85 1 1 1.24005 14.3413 0.902597
7930 1 1 5.57081 16.1608 0.8675
7897 1 1 3.11321 14.6663 1.46879
345 1 1 6.82855 14.3456 0.424067
344 1 1 9.46855 14.7147 1.26073
738 1 1 7.83343 15.2722 36.8596
7929 1 1 10.5309 17.3873 37.6056
1533 1 1 12.6601 13.3309 1.52567
7436 1 1 11.95 15.1627 36.8645
7858 1 1 14.4199 14.046 35.9984
7920 1 1 15.2186 15.8528 37.4946
670 1 1 16.8298 15.4623 2.05561
278 1 1 18.3596 16.7417 1.59094
7870 1 1 18.3722 15.0229 2.2261
791 1 1 2.5402 17.8237 37.1685
398 1 1 1.68 17.4201 1.71271
310 1 1 18.4995 15.4803 0.945209
331 1 1 2.38426 17.3289 0.615947
7602 1 1 2.24147 16.2166 1.81131
397 1 1 2.85649 18.4976 0.180222
7086 1 1 3.51564 15.4263 0.741242
7555 1 1 5.49267 16.8063 1.64541
340 1 1 5.50583 17.0752 0.201903
7695 1 1 5.49432 15.9505 37.4778
768 1 1 6.82266 16.404 37.3108
249 1 1 7.59722 17.8197 36.6744
6936 1 1 7.66181 18.2613 0.0243161
7667 1 1 9.96929 0.0260296 0.190662
286 1 1 9.5463 17.5613 37.4398
7613 1 1 7.87594 15.7802 0.264362
675 1 1 11.0814 16.9168 0.843933
7437 1 1 14.0434 17.3442 0.0224061
7994 1 1 11.9016 16.2306 1.52078
7951 1 1 12.4551 15.8534 0.563203
64 1 1 14.0125 16.5578 2.11112
7147 1 1 13.5907 14.9374 1.28749
785 1 1 15.9291 16.9546 36.149
7963 1 1 17.2219 16.8415 37.5894
1199 1 1 17.5019 15.8454 37.4122
834 1 1 17.974 18.6573 1.46958
7844 1 1 15.7656 16.4517 1.49983
439 1 1 1.35063 18.0005 0.964215
7926 1 1 2.70031 17.5055 1.74504
318 1 1 1.70965 18.4113 0.140117
7848 1 1 1.52889 0.588321 2.03292
6767 1 1 3.84213 18.7399 0.625085
7532 1 1 5.70486 0.667543 37.1864
7661 1 1 4.92263 1.93889 1.36106
7620 1 1 9.72762 0.420092 1.0488
141 1 1 8.77882 18.334 36.8716
329 1 1 6.2133 0.916127 36.3369
338 1 1 7.84621 0.325303 1.02831
740 1 1 10.1353 16.8162 2.36556
749 1 1 11.6401 18.2689 37.0873
837 1 1 16.2647 17.3171 0.253725
6832 1 1 14.5332 18.3382 0.482189
79 1 1 18.2588 16.384 0.0488152
7638 1 1 17.5871 18.6929 2.44757
1713 1 1 0.816547 18.1723 37.2084
105 1 1 1.24742 16.6335 1.11975
1158 1 1 18.6427 1.93507 3.12781
491 1 1 0.228868 1.47833 3.94946
7996 1 1 2.71572 1.97776 2.5803
7651 1 1 1.24927 1.38745 3.59505
35 1 1 1.54206 2.70246 1.95214
778 1 1 2.11172 0.692448 3.7784
323 1 1 5.60536 2.49107 0.328603
1210 1 1 7.13543 17.1087 0.736435
419 1 1 7.05353 0.0306966 1.85627
1541 1 1 8.55905 17.9892 3.43935
553 1 1 10.6107 2.86023 4.4125
1130 1 1 12.4735 0.279984 3.70601
504 1 1 7.95059 18.2623 1.57736
375 1 1 12.9909 0.150055 2.53642
7779 1 1 12.7879 0.675009 1.67682
353 1 1 12.7601 1.26612 4.08958
1138 1 1 13.6642 1.41567 1.2407
7989 1 1 13.3599 1.04779 0.221761
7990 1 1 14.3525 18.6667 2.31281
784 1 1 16.9977 18.5124 0.821962
151 1 1 15.7192 0.957408 2.20302
1146 1 1 15.6041 18.3751 0.522438
899 1 1 18.6116 18.604 2.75736
7950 1 1 0.269555 2.66701 1.75843
483 1 1 0.0289423 3.18676 2.80615
2134 1 1 0.77844 2.32454 3.00302
321 1 1 3.58699 2.16295 3.74632
802 1 1 3.04691 1.47923 1.58003
503 1 1 4.9399 1.51808 4.32969
487 1 1 5.40882 18.7848 3.23057
7616 1 1 5.86668 1.32817 2.84439
7585 1 1 7.97701 0.592533 2.02506
764 1 1 8.86918 2.59519 2.66681
496 1 1 7.8964 1.93261 2.45288
726 1 1 8.64413 1.15487 2.85615
416 1 1 8.65338 17.947 2.33582
1308 1 1 9.2815 2.22949 4.36401
500 1 1 11.7789 1.5866 2.64605
1196 1 1 13.2003 2.83803 2.03688
460 1 1 13.7813 0.752349 3.23731
7911 1 1 11.6518 0.489585 2.91987
7708 1 1 15.0408 2.80464 0.82311
422 1 1 14.897 1.95583 2.86049
7997 1 1 12.1441 3.37554 1.52716
1223 1 1 14.6454 2.00879 1.37915
1238 1 1 16.4505 4.0504 1.35709
157 1 1 16.4381 1.63581 2.6383
1717 1 1 18.1005 4.31396 3.2049
7756 1 1 18.4627 3.7702 1.38213
1634 1 1 17.5432 4.73784 1.28179
520 1 1 3.59755 2.64911 2.68025
1280 1 1 2.13283 5.10599 1.70902
7715 1 1 2.05964 4.23724 2.31918
523 1 1 0.133571 4.21129 2.44924
1932 1 1 4.69885 2.24656 3.64306
89 1 1 6.23593 2.09001 1.94959
527 1 1 6.69653 3.71041 2.67419
43 1 1 3.77759 1.46884 2.65275
60 1 1 7.18339 5.20672 0.514383
1168 1 1 4.65238 1.83353 2.6365
887 1 1 8.32507 4.04734 4.39963
7296 1 1 7.06596 2.41617 3.0514
7698 1 1 9.10518 3.56669 0.827799
1337 1 1 6.19042 5.04493 1.62709
7700 1 1 9.46929 3.17851 3.71269
217 1 1 10.9566 4.65056 3.55862
7656 1 1 11.0059 2.80642 1.08961
781 1 1 11.1472 0.852264 2.04876
224 1 1 10.944 4.43735 2.33399
616 1 1 11.9176 3.88051 3.47326
7665 1 1 12.8594 4.66082 2.22256
874 1 1 15.0417 3.00809 2.64421
7552 1 1 15.6865 3.53934 3.41157
1670 1 1 16.187 3.20015 1.76621
1640 1 1 17.8623 5.73338 1.56609
1315 1 1 16.1865 2.50207 2.96967
525 1 1 16.8388 4.23612 2.33393
481 1 1 17.8877 4.70105 2.27257
1751 1 1 18.819 4.81951 1.13921
6804 1 1 1.89758 6.15946 1.93404
7643 1 1 2.93674 5.8688 2.39591
1776 1 1 4.15986 5.33232 2.01474
7685 1 1 6.33849 4.83194 3.90977
1045 1 1 7.39677 6.66147 3.20012
1339 1 1 3.13407 4.42191 1.19661
130 1 1 5.78642 3.51341 2.17363
94 1 1 7.57104 3.85338 2.2189
1373 1 1 6.64579 3.16541 1.49597
1701 1 1 10.6582 5.6515 3.20438
581 1 1 9.61395 5.65158 2.51893
147 1 1 12.0864 4.95238 4.71779
954 1 1 14.6412 3.18049 1.72739
100 1 1 13.8254 2.96696 0.955302
908 1 1 15.3939 4.01067 1.83921
156 1 1 14.0234 5.48954 3.61319
1194 1 1 17.9442 6.56463 2.72273
801 1 1 16.5181 5.16729 1.33104
1316 1 1 17.612 6.73481 1.82596
522 1 1 1.05159 7.47051 4.20514
1323 1 1 2.25274 6.13905 3.20889
1806 1 1 0.588476 7.21003 0.209556
241 1 1 3.71159 6.52592 3.16609
1409 1 1 3.26642 4.7898 2.52424
729 1 1 1.56089 5.95156 4.20208
566 1 1 5.1855 5.21998 2.33021
7718 1 1 5.36737 9.81852 2.26625
10 1 1 6.28139 6.06725 0.221049
1296 1 1 7.68928 5.65288 4.32903
7762 1 1 7.42192 5.91487 2.36958
376 1 1 7.44932 5.44297 1.55226
497 1 1 9.35994 6.6159 2.03159
555 1 1 11.359 6.61927 4.09147
587 1 1 8.18497 5.87533 3.28271
446 1 1 10.424 6.93427 2.07844
140 1 1 10.6724 7.69749 1.35593
498 1 1 11.8349 6.47376 2.94422
1668 1 1 14.0327 5.46375 2.36823
552 1 1 14.2686 6.59782 2.36988
515 1 1 13.6482 7.4809 1.1441
1359 1 1 15.2434 6.53281 37.5581
1037 1 1 15.4871 5.24775 2.62003
1637 1 1 16.2269 7.66508 4.07854
1754 1 1 17.7038 7.05864 4.0077
1360 1 1 18.6741 6.42061 1.89149
1318 1 1 18.5505 7.51185 1.87844
45 1 1 1.92854 8.24722 1.79984
158 1 1 0.850553 7.7732 1.87926
81 1 1 3.57255 7.62772 0.795366
720 1 1 2.73655 9.36534 4.50478
1766 1 1 3.42157 7.09633 2.23302
852 1 1 3.25469 7.79746 4.10274
153 1 1 3.61959 9.40664 3.40965
637 1 1 4.40649 7.58923 3.36243
1781 1 1 4.50964 9.35755 5.20056
138 1 1 5.63067 7.4384 1.75148
53 1 1 6.74291 8.06433 2.98371
2177 1 1 4.32429 10.5693 2.36081
1085 1 1 5.59837 9.85605 1.19489
1727 1 1 8.26529 7.00373 3.77193
177 1 1 8.45431 8.14367 37.2238
1098 1 1 8.69731 7.16749 2.79672
890 1 1 10.28 8.42054 2.68932
232 1 1 9.45392 8.71771 2.10085
231 1 1 11.2097 7.92579 2.79301
948 1 1 13.0616 7.02411 4.0173
1441 1 1 12.5343 6.62763 1.46821
2153 1 1 14.0847 7.40322 2.99311
193 1 1 17.2836 8.55172 2.13992
7798 1 1 14.0029 8.86196 3.57516
594 1 1 15.4157 9.12641 3.92339
7397 1 1 16.7032 7.66177 3.08575
7721 1 1 0.144755 6.25623 37.0994
441 1 1 0.116326 8.85996 3.24764
7800 1 1 0.977115 9.12752 0.817135
7806 1 1 2.44749 9.76447 2.58575
6484 1 1 1.69377 8.98245 5.45763
564 1 1 3.81812 8.27209 3.09405
1041 1 1 3.59148 9.37758 2.21965
374 1 1 6.64142 13.6145 2.39235
7734 1 1 5.79707 9.87411 37.3713
536 1 1 8.19679 10.2307 3.12785
7377 1 1 8.74078 9.93144 1.81219
1420 1 1 9.34137 10.5744 0.871539
7774 1 1 9.31522 9.40525 2.9368
7712 1 1 12.9411 8.34739 3.94789
1020 1 1 10.0672 9.45214 1.94032
1478 1 1 14.3745 8.11421 2.09433
7808 1 1 11.6946 11.0822 2.70661
1430 1 1 11.7067 9.82979 2.36812
276 1 1 15.9275 10.008 4.26243
1033 1 1 16.1148 8.70456 1.8577
308 1 1 0.0468034 9.56833 2.36549
393 1 1 0.913189 10.7961 2.82952
7931 1 1 1.19432 8.73779 2.59763
206 1 1 2.16719 10.3337 1.74305
1852 1 1 1.06597 10.786 1.75764
201 1 1 2.78509 10.8254 2.72659
983 1 1 3.03552 9.32465 1.34887
357 1 1 8.23727 11.16 1.3093
1376 1 1 6.33764 9.79616 3.64772
526 1 1 4.80493 12.3098 0.30121
1008 1 1 5.83311 13.3964 3.39682
1089 1 1 6.17861 11.3359 2.96623
1135 1 1 8.09019 12.103 3.0971
1532 1 1 8.84763 11.3614 2.24737
1065 1 1 8.98144 10.9765 3.766
615 1 1 10.4093 10.3788 1.48551
1790 1 1 11.3266 9.81607 1.31834
492 1 1 9.84103 10.4853 3.59622
227 1 1 9.75011 13.0701 3.0601
7811 1 1 12.0647 11.7009 1.5068
1044 1 1 10.872 9.26027 2.72488
638 1 1 13.8612 11.5742 3.12038
593 1 1 12.1114 10.7283 4.19561
1074 1 1 14.3205 11.6473 2.20659
7395 1 1 13.4269 10.3913 3.42609
669 1 1 17.3001 11.0965 3.08517
7804 1 1 16.9717 9.75211 2.29026
349 1 1 18.0746 10.1419 2.14345
6569 1 1 0.073824 10.8389 2.10378
7322 1 1 1.42168 11.6548 3.77115
162 1 1 1.20862 9.70107 2.01069
1005 1 1 1.94415 11.78 1.51431
327 1 1 1.87927 12.6427 2.54988
925 1 1 4.19338 10.3684 4.21723
7928 1 1 2.07909 11.6888 2.87829
233 1 1 3.35761 12.1236 2.85811
342 1 1 5.1157 13.4404 0.996757
1486 1 1 4.40002 13.8045 2.77553
1017 1 1 6.16767 12.3759 2.68857
699 1 1 9.14549 11.7731 1.32741
1103 1 1 10.8575 12.2443 1.91293
1822 1 1 10.641 10.2945 2.70067
610 1 1 11.6508 10.8414 1.71063
1153 1 1 14.2828 12.6398 2.40515
1538 1 1 14.7445 13.1062 3.3527
878 1 1 15.3012 12.2189 2.49272
1073 1 1 15.3842 11.1723 2.28228
7444 1 1 14.5618 10.3151 0.872733
2234 1 1 15.3884 11.7826 1.13581
559 1 1 17.5861 11.4875 2.21248
7791 1 1 18.3746 12.2466 1.62751
1484 1 1 17.5466 12.5652 0.635277
7757 1 1 17.9147 13.2998 3.67642
404 1 1 1.0413 12.5986 3.30455
7052 1 1 0.329494 13.0411 1.45917
1128 1 1 1.11219 12.7759 2.01042
2373 1 1 3.9505 12.2484 1.36629
7180 1 1 4.38829 16.1765 2.41234
7487 1 1 5.27206 12.6679 2.82781
691 1 1 7.56998 13.9691 1.66846
2661 1 1 8.52281 14.4406 2.38365
7936 1 1 5.44187 14.1744 2.20675
225 1 1 9.06238 12.3679 2.56785
1133 1 1 7.93085 15.6229 2.1409
7945 1 1 10.6432 15.1912 1.51298
736 1 1 9.73993 14.2516 2.74787
1501 1 1 11.2979 14.3322 0.612936
7464 1 1 11.2708 12.4497 36.5576
259 1 1 13.0265 13.9324 2.37478
2244 1 1 11.4621 12.8743 1.20505
1942 1 1 14.5422 14.0433 3.72627
1368 1 1 15.6741 14.6314 1.61433
608 1 1 16.0705 13.4416 36.7778
7515 1 1 16.5507 13.8424 1.96261
1389 1 1 18.1434 14.695 3.15093
1439 1 1 0.677157 11.9086 1.65168
1427 1 1 18.791 14.1272 1.8722
7968 1 1 1.24898 16.0926 2.26334
686 1 1 0.907341 18.3152 3.72587
7658 1 1 0.00572108 13.7133 2.91758
590 1 1 1.32674 13.6706 4.24087
609 1 1 3.1331 16.3302 1.16766
7835 1 1 3.02371 16.1099 2.54375
1081 1 1 5.05335 14.4393 0.988346
1446 1 1 4.35093 15.9515 1.4347
7503 1 1 6.0627 14.3979 1.44386
1485 1 1 5.79423 16.2288 2.62832
7123 1 1 5.38051 15.2195 1.81685
7579 1 1 6.34097 13.4076 1.29068
690 1 1 7.2774 16.0962 1.25895
773 1 1 6.25407 16.0678 1.63459
31 1 1 10.5184 16.018 0.239306
304 1 1 11.289 13.8953 2.20004
1170 1 1 10.7802 16.2015 1.62138
7531 1 1 8.7325 15.0434 4.10246
7508 1 1 11.9767 16.5905 3.70708
7829 1 1 12.2952 13.2244 3.48629
7834 1 1 13.8183 13.3536 1.4477
273 1 1 12.9962 15.8919 3.69162
1192 1 1 13.2533 15.9249 1.29196
7075 1 1 14.4092 14.8908 0.351272
990 1 1 15.0547 15.3536 1.0978
7551 1 1 14.9994 17.1945 2.2021
306 1 1 14.4258 14.3023 1.26946
1561 1 1 17.4211 14.2796 1.35322
1149 1 1 18.5561 16.0998 3.23676
394 1 1 2.32252 16.5415 5.82291
248 1 1 4.24803 16.9458 1.61023
755 1 1 1.87631 15.2478 2.04427
7972 1 1 4.13802 17.8508 2.03945
643 1 1 3.58477 17.7753 0.832317
7455 1 1 5.1759 17.7027 1.30422
1131 1 1 6.04383 17.2975 3.08469
292 1 1 6.35449 18.0402 2.26075
1172 1 1 6.36042 15.4195 0.496485
16 1 1 8.01507 15.6439 3.214
700 1 1 8.37275 16.4286 1.10851
346 1 1 9.60267 17.2782 1.4817
381 1 1 9.78247 15.4397 2.21382
1506 1 1 11.3571 15.6612 2.36375
1226 1 1 9.83103 18.5826 2.01441
658 1 1 12.1769 17.0817 0.740786
379 1 1 12.4197 14.7843 1.20571
2062 1 1 12.5032 15.4312 2.14169
1107 1 1 14.3938 15.5224 2.6307
7040 1 1 15.5478 17.7005 1.3994
1537 1 1 13.5049 15.6156 2.11937
33 1 1 16.7544 16.4048 2.30419
1233 1 1 16.2961 15.4402 2.94823
7561 1 1 0.541442 17.529 1.66023
1474 1 1 16.6911 18.0522 2.20484
1198 1 1 1.26885 18.1125 2.79551
412 1 1 0.212877 1.16377 1.19241
7197 1 1 0.727211 16.6377 4.23334
1481 1 1 0.931712 0.316825 2.85808
155 1 1 1.20262 1.56266 1.73918
325 1 1 3.2962 18.0223 3.15278
207 1 1 5.44707 18.4581 2.06134
7896 1 1 4.73824 0.773654 2.80061
889 1 1 5.05168 18.8185 0.604217
363 1 1 6.49209 17.9492 0.827968
27 1 1 8.91414 15.9697 1.99389
1174 1 1 7.89859 17.7503 2.81621
7913 1 1 12.5997 18.1795 1.18124
820 1 1 9.79571 1.57106 2.7072
7550 1 1 11.4267 18.2063 0.705193
22 1 1 13.8929 17.1513 1.0796
982 1 1 12.1479 17.9262 2.49936
391 1 1 11.4101 17.007 1.96786
433 1 1 13.2529 17.5078 2.00918
1272 1 1 14.6276 18.0514 1.47958
754 1 1 15.8116 18.6692 1.73734
2033 1 1 16.5119 18.3797 3.17904
40 1 1 17.465 17.1532 2.67398
800 1 1 17.8989 2.07884 2.48351
888 1 1 18.4449 17.6831 2.22997
1200 1 1 17.7658 18.5104 3.46743
1106 1 1 1.72065 2.50675 5.41871
843 1 1 2.6638 0.647031 2.57044
7614 1 1 4.55085 18.2105 2.98477
1201 1 1 5.51289 0.848656 1.83622
777 1 1 5.73149 18.2834 5.06201
7678 1 1 5.02448 0.556405 3.99378
1141 1 1 7.10526 18.6126 5.70773
1584 1 1 6.1223 0.651003 4.41587
6 1 1 8.80993 18.0704 4.5182
855 1 1 6.63841 18.2661 3.26279
1548 1 1 10.9492 17.1677 4.97414
1250 1 1 11.2757 18.3333 3.26156
869 1 1 11.2492 1.44992 3.65804
139 1 1 14.7084 0.928864 3.98564
941 1 1 12.2061 1.21522 5.45021
20 1 1 14.5516 18.7767 3.36972
7155 1 1 14.6283 0.788394 2.5779
7478 1 1 14.8436 0.434458 1.65128
1187 1 1 13.9667 17.5731 3.44902
7887 1 1 16.155 17.9083 4.14613
364 1 1 17.9031 2.77652 3.20411
2029 1 1 16.7958 0.886033 2.06464
884 1 1 0.194899 4.13343 3.67485
336 1 1 3.59821 0.265823 3.11646
47 1 1 1.67719 2.50656 3.65612
1129 1 1 2.19478 1.43586 4.84829
1638 1 1 4.60521 17.0594 4.21524
7298 1 1 5.18018 0.746532 5.39134
1340 1 1 5.82873 2.39932 4.57517
971 1 1 5.83673 1.39558 3.76353
93 1 1 5.48998 2.69658 3.36542
937 1 1 6.84605 1.90876 3.94435
1582 1 1 7.09798 1.06044 3.01349
7150 1 1 8.2523 2.14424 4.18996
863 1 1 7.88231 1.25385 3.68061
511 1 1 11.6135 2.77151 3.55489
26 1 1 15.4317 1.83824 5.15725
821 1 1 12.9344 2.68865 5.25039
7619 1 1 11.6498 3.26655 2.56755
818 1 1 11.736 1.58036 4.49244
1540 1 1 14.7863 2.57573 3.83432
427 1 1 15.4677 1.10122 3.31349
1964 1 1 15.4998 2.21782 1.9065
752 1 1 16.6317 2.34625 1.78801
756 1 1 16.0039 2.12751 3.93539
115 1 1 18.1203 1.00418 3.39373
450 1 1 1.14971 4.43703 2.94214
1636 1 1 18.6959 5.50772 2.68309
603 1 1 3.48616 5.63406 4.37581
1738 1 1 1.13363 3.40644 2.7635
1216 1 1 4.97054 3.92078 5.11676
767 1 1 3.07141 4.68761 4.47441
885 1 1 6.68684 3.39754 4.72335
734 1 1 6.12136 2.92144 5.45813
1336 1 1 8.62482 5.07888 4.51931
977 1 1 6.85664 2.31873 4.99175
41 1 1 7.93689 2.93109 3.15606
1206 1 1 6.4825 3.23334 3.55442
611 1 1 8.6337 3.52453 2.57174
850 1 1 9.25219 3.49412 4.62158
1687 1 1 10.7194 3.45726 2.15489
876 1 1 9.86611 4.1713 4.01509
824 1 1 11.4666 4.49536 1.40108
588 1 1 12.4159 3.3679 4.38626
426 1 1 13.3418 3.55289 3.39369
1597 1 1 12.9151 4.38807 4.09315
543 1 1 13.3269 3.75617 1.60687
514 1 1 14.8087 4.06371 2.62959
495 1 1 14.9332 2.86292 5.24183
910 1 1 16.3246 4.11446 4.05144
119 1 1 16.0315 4.35589 2.93329
2159 1 1 17.2903 3.04978 2.39235
7228 1 1 17.1345 1.7172 3.57751
1197 1 1 1.50035 3.48353 3.94061
1241 1 1 18.5113 7.74081 4.02547
848 1 1 1.41745 4.81777 0.555618
1334 1 1 0.717404 5.84604 6.77133
98 1 1 1.55624 5.4972 2.66969
1330 1 1 5.05601 5.01106 4.26954
2136 1 1 5.44591 3.61355 4.06973
965 1 1 5.98743 4.38414 4.72003
1729 1 1 4.47753 3.13039 4.50129
7219 1 1 7.32244 5.16809 5.48369
180 1 1 8.22517 4.21464 3.27986
1331 1 1 8.30767 5.7606 5.17708
1066 1 1 9.22658 4.57895 5.12863
2150 1 1 10.7177 3.48232 3.44407
909 1 1 11.6359 5.17493 2.65617
1229 1 1 12.498 4.87427 3.36052
173 1 1 12.4043 6.21247 4.29379
32 1 1 12.6997 5.91781 3.28391
1413 1 1 11.3156 5.46798 4.19086
947 1 1 11.8562 3.99147 5.02536
470 1 1 12.8388 4.79465 5.53771
2232 1 1 13.5829 4.45728 3.39552
509 1 1 14.8399 5.96772 4.54024
1202 1 1 13.2316 5.64422 4.29471
2071 1 1 16.88 5.34034 4.0445
1759 1 1 16.2354 5.72406 4.75408
1355 1 1 18.4097 5.13292 3.70291
1275 1 1 15.9071 4.6595 4.76407
560 1 1 0.795999 6.63042 3.56647
568 1 1 2.8428 7.26106 3.27381
2357 1 1 1.21929 4.64444 4.20934
808 1 1 0.959152 6.35132 5.32215
489 1 1 0.61048 5.38131 3.35122
239 1 1 5.34247 3.73057 3.0449
936 1 1 3.49867 7.71527 5.1663
1299 1 1 5.61078 5.90389 3.73124
898 1 1 7.3442 4.54142 4.58117
1732 1 1 4.91422 6.92349 5.13063
932 1 1 8.11303 6.66893 1.94141
1333 1 1 8.38782 4.97076 2.554
1381 1 1 8.77155 6.09012 4.21336
2126 1 1 9.67675 6.05885 3.59662
2103 1 1 9.20801 5.0216 3.52655
1015 1 1 10.3527 5.52081 4.50251
7850 1 1 11.8727 6.22764 5.35084
862 1 1 12.9717 7.28308 2.80657
1354 1 1 13.5568 4.50677 6.2942
1463 1 1 12.4517 7.25882 5.70454
1438 1 1 14.4254 7.43237 4.29695
7714 1 1 13.0276 6.4409 5.10728
2269 1 1 15.3344 8.0103 4.36843
1648 1 1 15.0641 6.75802 3.5562
1793 1 1 15.6703 6.73417 4.66159
1443 1 1 17.6585 6.0816 4.2415
1488 1 1 1.36464 6.99149 2.71904
1677 1 1 18.5506 5.67337 5.31385
927 1 1 2.91757 8.55069 3.54845
449 1 1 4.01044 8.43552 4.39262
90 1 1 2.07 6.93393 4.16089
966 1 1 5.18699 7.00915 3.88204
1051 1 1 6.38464 7.07202 2.81757
7843 1 1 6.24064 7.69139 4.16695
571 1 1 5.38062 8.74612 2.54867
1466 1 1 10.2365 6.85726 4.05064
951 1 1 5.89245 6.76246 4.56524
7827 1 1 12.0284 7.26235 3.68169
1378 1 1 9.69087 7.61988 3.09259
1019 1 1 10.9932 7.35308 4.73899
2094 1 1 11.0074 6.77777 5.68096
1387 1 1 12.0925 8.21167 4.73591
1036 1 1 13.605 9.19647 1.41175
1429 1 1 11.6819 7.57861 6.1533
1395 1 1 13.8976 8.7408 5.65143
2154 1 1 14.6835 10.1655 2.46406
1798 1 1 14.456 8.6096 4.84162
134 1 1 16.0013 9.61292 5.21171
996 1 1 17.9676 8.81932 3.96984
1350 1 1 17.8521 8.01127 3.04252
311 1 1 17.5745 9.14281 2.93498
6867 1 1 1.161 8.56824 3.73365
1365 1 1 1.66229 10.4533 3.54901
1850 1 1 2.36096 8.59053 6.49895
315 1 1 4.6674 9.69963 6.10778
358 1 1 4.45393 9.32428 4.06483
586 1 1 5.51189 10.1698 4.25483
7823 1 1 5.57462 7.68113 2.95643
1421 1 1 6.99418 8.63332 3.90131
208 1 1 7.80981 7.9268 4.49818
988 1 1 8.22377 9.11248 2.91527
2065 1 1 9.00613 8.8316 4.09946
649 1 1 11.9753 9.07916 3.05658
1390 1 1 11.1066 8.24235 5.69025
606 1 1 12.1771 9.9279 4.76464
1718 1 1 14.161 10.9291 1.52283
108 1 1 15.6718 9.51629 2.99344
1714 1 1 13.5869 9.43152 4.61035
2645 1 1 14.7825 9.64772 4.78642
1353 1 1 16.8151 8.84055 3.50276
1396 1 1 16.8214 9.94817 3.37926
1556 1 1 17.0042 9.44687 4.45995
1403 1 1 0.219586 9.42166 4.67162
1521 1 1 1.11334 9.74844 6.70503
1001 1 1 3.33304 13.5704 2.97728
365 1 1 0.932934 10.7818 4.32752
2084 1 1 1.73873 11.0107 4.95921
7482 1 1 3.34474 10.9911 4.69458
573 1 1 5.37339 10.6824 2.80064
1050 1 1 6.95544 10.8819 5.56821
255 1 1 6.15551 14.5533 3.07515
694 1 1 10.8932 7.98154 3.75278
1695 1 1 8.80327 9.73897 3.81454
1111 1 1 12.208 12.0734 5.45612
211 1 1 11.5675 10.2314 3.29149
1039 1 1 13.008 9.4182 3.29717
303 1 1 12.4854 11.9452 4.09956
136 1 1 12.8833 11.0716 5.34956
78 1 1 16.2945 11.8395 1.77839
955 1 1 12.6753 11.168 3.03582
7428 1 1 14.8128 11.0478 3.38609
914 1 1 15.0201 11.2955 4.44291
642 1 1 16.0238 11.4854 4.81149
757 1 1 17.8105 11.4862 3.92799
1475 1 1 0.33062 11.6209 4.7456
1878 1 1 0.14587 11.2771 3.45974
557 1 1 18.3454 10.2833 3.24242
125 1 1 2.79371 14.8061 4.02519
1163 1 1 2.58811 11.1278 3.74497
288 1 1 3.16436 12.6227 4.1719
7888 1 1 3.43434 14.593 2.51393
1287 1 1 3.91242 11.36 3.6669
1411 1 1 5.51906 12.8222 4.48764
621 1 1 5.1162 14.4879 3.66848
574 1 1 10.2591 11.5857 2.73352
1983 1 1 9.19834 10.6606 2.86971
277 1 1 10.8393 12.6459 3.13767
622 1 1 11.3996 14.2448 4.91967
2112 1 1 11.9596 12.2886 3.22663
667 1 1 13.8226 14.7388 2.94736
600 1 1 14.0324 11.7114 4.07272
991 1 1 13.5515 13.8673 3.34436
7907 1 1 13.1411 11.1252 4.14673
6719 1 1 15.6228 13.9256 3.4545
240 1 1 15.7416 11.7128 3.5804
967 1 1 16.2749 13.0989 4.14031
968 1 1 15.1414 13.1269 4.27876
1159 1 1 0.696374 11.4411 5.77668
251 1 1 17.561 13.787 2.57766
1450 1 1 4.13338 13.0943 2.1112
688 1 1 0.739738 14.3918 4.46727
627 1 1 4.38365 15.0562 2.16681
2343 1 1 6.66992 13.2586 4.02867
7784 1 1 6.81858 13.7726 4.97116
213 1 1 9.02529 12.0515 3.60816
1939 1 1 9.88211 13.1168 4.17412
2017 1 1 10.4636 14.076 3.58949
628 1 1 12.9025 14.8818 3.01356
1432 1 1 12.6696 13.8091 4.22568
747 1 1 14.479 12.6414 5.58782
1825 1 1 15.1977 14.0253 2.35416
1120 1 1 15.8494 14.8698 3.94068
1042 1 1 16.1908 14.03 4.76661
597 1 1 16.2745 12.272 2.6995
639 1 1 16.8268 13.1571 3.21564
282 1 1 0.406506 16.7473 2.28758
1487 1 1 18.598 14.3695 3.97484
1550 1 1 2.84823 15.8025 3.69267
2367 1 1 0.478622 15.4021 2.36606
7900 1 1 3.55935 13.8853 6.08141
350 1 1 4.01104 15.374 3.22151
1217 1 1 6.904 15.5366 2.92964
687 1 1 7.08244 14.5999 2.66931
7975 1 1 6.80896 17.0187 2.00955
1530 1 1 8.33969 16.8406 3.14891
1145 1 1 5.01328 15.6508 3.02878
7543 1 1 8.49923 14.5708 5.82422
253 1 1 8.55444 13.0415 3.22509
1527 1 1 7.79112 15.6668 5.37098
1579 1 1 9.54186 15.567 4.96001
1139 1 1 9.66269 14.9979 3.49035
317 1 1 9.93968 15.9448 4.09587
1906 1 1 11.9375 14.5991 2.70325
254 1 1 10.9536 15.1543 3.93939
7838 1 1 12.1436 16.4272 2.64439
269 1 1 14.5076 15.469 3.92551
663 1 1 16.9868 15.3582 3.81004
629 1 1 17.6436 15.5883 2.68807
2037 1 1 17.0257 14.7359 2.91115
1046 1 1 17.1482 14.7513 4.55694
724 1 1 0.80063 15.7661 3.20286
727 1 1 2.24227 17.0023 2.69584
1156 1 1 1.96329 15.4537 3.08565
1449 1 1 2.29454 16.569 4.23546
1211 1 1 4.01717 17.2095 3.3883
682 1 1 2.09348 14.3653 3.20272
1453 1 1 5.05584 17.0563 2.55771
693 1 1 3.40839 17.1225 2.40636
1134 1 1 7.09215 16.9593 3.10434
704 1 1 4.97506 15.508 4.30027
7856 1 1 10.1794 16.8227 3.57581
7980 1 1 8.2832 16.8904 2.08103
19 1 1 10.3165 15.8144 3.1109
1184 1 1 10.6846 14.7686 2.48387
1151 1 1 11.882 15.1476 3.58391
7872 1 1 13.9889 16.4927 3.15268
790 1 1 13.5066 17.6221 4.37949
823 1 1 12.4565 14.8351 4.30967
798 1 1 12.7744 16.6697 1.83315
234 1 1 15.6977 15.5734 2.15628