ITEM: TIMESTEP
200
ITEM: NUMBER OF ATOMS
8000
ITEM: BOX BOUNDS pp pp pp
0.0000000000000000e+00 1.8820720577620570e+01
0.0000000000000000e+00 1.8820720577620570e+01
0.0000000000000000e+00 3.7641441155241139e+01
ITEM: ATOMS id mass type x y z
547 1 1 0.149582 0.797563 1.31128
835 1 1 1.15482 0.818697 1.1326
319 1 1 3.31849 1.38231 0.269449
96 1 1 3.04572 0.336944 0.568728
917 1 1 4.06331 1.05324 1.38711
796 1 1 3.91803 2.10854 1.59593
38 1 1 5.73589 1.37468 0.293855
696 1 1 6.24414 0.444329 1.22004
775 1 1 5.65594 0.70934 37.1163
1208 1 1 7.07055 1.42479 0.544831
1178 1 1 7.95554 0.24405 0.111801
7287 1 1 8.39141 0.186928 0.948801
814 1 1 10.2406 0.8916 0.441258
838 1 1 10.7142 0.932781 2.22475
7861 1 1 10.9817 0.0171669 1.69205
7938 1 1 12.4168 0.934033 1.53784
116 1 1 12.2769 1.60003 0.0103871
501 1 1 13.0346 1.21987 0.52151
7230 1 1 14.6754 0.0124154 0.122091
7549 1 1 14.5808 0.834614 1.14665
1142 1 1 16.8553 1.40946 1.3936
7560 1 1 17.7471 0.331447 0.478346
34 1 1 17.7759 1.41654 0.545741
753 1 1 17.9444 18.3102 1.08658
430 1 1 1.09214 1.99433 0.998297
109 1 1 2.11508 1.32489 1.2813
1675 1 1 1.52824 1.4962 2.91322
475 1 1 2.06543 2.97763 1.04638
1160 1 1 2.90245 2.19776 0.907334
1319 1 1 1.89612 2.2318 2.15688
841 1 1 4.6179 2.85579 1.21743
7316 1 1 3.44769 3.24884 37.4663
493 1 1 5.31405 2.27707 0.525337
405 1 1 7.3107 2.46132 0.716063
5 1 1 8.41566 2.57345 0.993948
7646 1 1 8.42595 1.62034 0.573024
7 1 1 9.34075 2.53382 1.67443
17 1 1 8.9338 2.1828 37.3846
1385 1 1 9.73644 1.64291 0.925842
421 1 1 11.4801 1.08511 0.397297
18 1 1 9.17328 3.09247 0.37893
1270 1 1 12.7341 2.58923 37.4687
149 1 1 13.7229 2.74074 0.318878
7987 1 1 16.0998 0.796819 0.757706
113 1 1 15.868 3.01553 0.506555
39 1 1 15.6393 1.99479 0.234675
746 1 1 17.2173 2.29413 0.85088
7601 1 1 18.4227 2.46354 1.2507
7633 1 1 17.638 2.3131 37.5281
2432 1 1 0.462081 4.64642 0.694454
1237 1 1 1.5642 2.33496 0.129128
209 1 1 2.84893 4.1464 1.00329
7647 1 1 1.25909 3.87317 1.17462
7253 1 1 4.77108 3.5376 2.0135
1239 1 1 3.73308 3.61742 1.96255
7607 1 1 3.55383 3.01499 1.18976
7644 1 1 7.7135 3.46465 0.988452
6856 1 1 6.6101 3.81871 37.5012
455 1 1 6.00101 3.14493 0.423976
7699 1 1 8.62996 3.88264 37.5436
765 1 1 8.32498 3.97211 2.12818
633 1 1 9.41457 4.15497 0.745445
1295 1 1 8.84536 3.56037 1.39142
779 1 1 10.6894 4.89951 1.23901
385 1 1 10.9715 3.93551 0.826683
461 1 1 13.1184 3.48285 1.11001
7303 1 1 12.09 4.05912 37.6009
508 1 1 15.1058 3.91364 0.855557
978 1 1 14.315 5.51381 0.566664
65 1 1 16.2415 3.93478 0.0578311
420 1 1 15.8604 4.17838 1.73078
7636 1 1 17.0664 3.11987 0.301953
786 1 1 17.6723 4.66916 0.364303
356 1 1 17.9038 3.45672 1.30283
479 1 1 18.6658 4.35278 37.3763
6956 1 1 0.0962002 5.54832 37.4072
324 1 1 1.66154 4.72621 0.814777
362 1 1 1.93063 6.15373 1.04679
488 1 1 2.67054 5.36159 0.976473
886 1 1 4.6127 6.25012 1.35069
445 1 1 3.80728 5.80031 0.306911
3 1 1 5.35302 5.29472 0.8059
1327 1 1 6.78103 5.4376 1.20836
7250 1 1 5.52795 5.08675 1.92919
1310 1 1 8.19779 5.499 37.5449
1026 1 1 7.5444 4.64504 0.562154
533 1 1 8.56316 6.33547 36.8258
171 1 1 9.05382 5.3342 0.633314
938 1 1 10.1788 6.06015 0.404304
7002 1 1 9.18995 6.39727 0.00654393
934 1 1 12.252 3.78073 1.8527
505 1 1 14.1677 5.77322 1.80696
1309 1 1 13.5999 4.75961 1.04512
7855 1 1 12.1112 5.01759 0.914205
7392 1 1 14.8321 5.12361 36.5412
7603 1 1 16.7678 5.75043 1.95089
2197 1 1 16.6159 5.25463 0.791534
111 1 1 15.3404 5.21275 1.28358
442 1 1 17.7182 6.46385 1.69132
478 1 1 0.716709 5.82253 0.66766
7249 1 1 1.63289 7.01421 37.524
440 1 1 3.45968 6.80386 37.0123
528 1 1 3.43317 6.65754 1.7952
1461 1 1 5.55971 6.14089 1.90883
1366 1 1 4.36433 7.33367 37.0253
7819 1 1 5.27406 7.43368 0.746806
7731 1 1 5.13322 7.09652 1.66049
1417 1 1 7.54924 6.50383 1.07026
7659 1 1 8.85353 6.72726 1.20459
537 1 1 10.041 5.88868 36.6254
623 1 1 11.1991 5.75013 1.34719
973 1 1 10.8227 7.05624 0.503681
538 1 1 12.1735 6.81836 1.41199
591 1 1 11.5798 6.21401 37.5671
7591 1 1 13.2339 6.39911 1.74433
68 1 1 16.0671 6.63758 1.61829
579 1 1 14.4907 7.33334 0.526884
7754 1 1 16.8066 6.59357 0.79321
554 1 1 15.5823 7.42333 2.31596
7641 1 1 18.78 6.74393 0.188441
159 1 1 16.6399 8.02964 0.384676
7879 1 1 1.43134 7.96787 0.97895
7239 1 1 1.67983 7.39882 36.4248
580 1 1 2.58746 7.02871 0.940564
1369 1 1 2.06524 5.32793 37.4558
1048 1 1 4.52867 7.94227 1.33985
6896 1 1 4.78758 6.82728 2.59958
653 1 1 6.4456 8.06476 1.10064
647 1 1 6.16434 8.23581 2.08569
539 1 1 7.94413 7.47605 1.93709
137 1 1 8.19152 7.77696 37.2872
228 1 1 9.91884 8.66116 0.0711993
1422 1 1 10.56 8.57455 1.83049
575 1 1 10.8204 8.0068 37.5103
462 1 1 11.0556 7.83413 1.14671
585 1 1 11.9282 7.42538 0.108231
532 1 1 10.9259 9.26716 37.4988
7432 1 1 12.4047 8.55553 1.71745
7821 1 1 12.626 6.00626 37.3232
7776 1 1 13.3813 7.31714 2.53289
188 1 1 13.8377 6.29557 0.790488
556 1 1 15.3403 7.73647 1.1908
1031 1 1 14.3841 7.92036 37.2412
519 1 1 17.6756 8.83912 37.5311
1473 1 1 16.4427 7.69374 1.29597
187 1 1 15.5703 6.79796 0.241851
959 1 1 0.242515 8.41914 0.906274
7924 1 1 0.570453 9.64786 37.4782
7841 1 1 2.20705 10.2304 0.471982
197 1 1 2.80326 8.49705 1.27402
1314 1 1 2.23856 8.84882 0.347582
164 1 1 2.9861 9.41305 0.589967
1053 1 1 4.4283 9.12124 1.27602
215 1 1 5.59503 8.90091 1.13847
300 1 1 3.93829 10.6551 1.72098
7748 1 1 7.5108 8.58835 1.57055
7011 1 1 6.54892 9.87008 37.2137
645 1 1 5.68079 9.63799 0.431391
95 1 1 8.66098 9.22733 0.984788
618 1 1 9.3861 8.4037 0.938379
178 1 1 9.77698 9.88366 0.366074
91 1 1 10.6858 9.17876 1.07678
7772 1 1 11.0055 10.2238 0.625382
607 1 1 11.253 10.2786 36.9792
7912 1 1 11.6465 8.49734 0.411917
223 1 1 13.467 9.87005 1.11504
230 1 1 13.9413 10.1408 36.8647
444 1 1 16.1571 10.7835 0.775614
1072 1 1 15.9893 8.57638 0.930379
636 1 1 16.2553 9.63887 0.591379
114 1 1 16.9812 11.352 1.08563
183 1 1 16.0222 9.82995 1.94173
7758 1 1 17.8862 8.60367 1.80758
281 1 1 18.5654 9.12829 0.380811
7525 1 1 0.0765408 9.33262 1.40004
962 1 1 0.854931 9.85975 0.804717
7849 1 1 1.52469 10.4375 37.1521
7854 1 1 2.84787 11.0785 0.353651
243 1 1 4.06864 11.6411 0.420251
7891 1 1 5.46177 10.93 1.04386
7541 1 1 6.38537 10.8566 0.18926
7822 1 1 7.12866 9.58746 1.26966
1148 1 1 7.05165 12.5766 0.35712
7864 1 1 9.08731 11.5857 0.421361
7862 1 1 8.87069 9.89098 37.5413
1105 1 1 9.52909 11.0091 1.89845
1979 1 1 8.89041 10.3148 1.06758
142 1 1 11.1892 11.1953 0.995491
7904 1 1 11.677 9.53523 1.03783
993 1 1 12.552 10.244 0.532815
1507 1 1 12.9274 12.4478 2.5011
235 1 1 11.9589 11.218 1.82923
6316 1 1 13.434 10.7312 0.196719
7480 1 1 16.1519 11.0362 2.06094
6675 1 1 15.1328 10.6546 37.3842
144 1 1 14.6026 10.0126 0.68806
6997 1 1 17.6184 10.6573 1.74413
7350 1 1 18.6119 11.313 0.512958
238 1 1 18.589 10.1992 0.909413
1282 1 1 2.49916 13.1518 0.581728
1136 1 1 4.54716 12.7243 0.461486
685 1 1 3.03442 12.4509 1.35697
7847 1 1 5.99111 11.7857 37.3032
175 1 1 5.39117 12.7301 2.0093
296 1 1 7.17804 14.0471 37.1775
970 1 1 7.18173 11.5299 37.4471
7499 1 1 7.99557 12.9292 37.2809
1102 1 1 7.73346 13.0333 1.30434
1509 1 1 8.96084 12.6647 0.416434
660 1 1 9.79682 12.0662 0.975609
7516 1 1 11.2494 13.032 1.00587
333 1 1 12.4428 11.1804 0.0716799
1100 1 1 10.8203 12.1365 1.17952
7777 1 1 11.5383 12.1864 0.023689
1182 1 1 13.4574 12.7571 0.403652
271 1 1 13.2558 11.9649 1.08606
7512 1 1 14.9836 12.5178 37.5954
683 1 1 14.3409 12.6301 0.853815
285 1 1 15.3164 13.1379 0.700655
280 1 1 16.7969 12.4337 37.5003
4 1 1 17.7907 11.8019 1.247
237 1 1 0.417194 12.0839 1.42846
7880 1 1 0.497884 13.11 0.963137
648 1 1 1.90899 14.1253 0.815503
202 1 1 1.52313 12.3552 0.61249
7921 1 1 2.98066 14.0579 1.18742
1173 1 1 3.27833 13.7016 0.336379
246 1 1 3.50033 13.574 36.8226
7817 1 1 4.04297 12.0055 1.48823
290 1 1 5.55324 14.2513 1.51661
7535 1 1 5.6454 13.0153 0.973442
287 1 1 7.28067 12.109 1.22787
229 1 1 8.32803 13.4949 0.519505
1070 1 1 8.5999 13.8902 1.7121
1573 1 1 9.09497 13.7071 37.5261
1908 1 1 9.38914 12.9237 1.31405
7502 1 1 9.65141 14.3677 36.7645
7610 1 1 8.67261 14.3724 0.810792
7983 1 1 10.7238 14.5724 0.0546169
1069 1 1 13.4273 13.7276 0.781386
204 1 1 17.0717 13.445 37.6219
1108 1 1 17.0355 12.5098 1.37689
6746 1 1 16.365 14.2353 36.7114
154 1 1 18.2112 13.2039 1.08508
194 1 1 18.2418 16.3795 0.186489
873 1 1 1.23891 14.9065 0.922307
1529 1 1 2.69344 15.4403 1.09546
7574 1 1 3.60068 14.7049 0.182629
85 1 1 2.54875 14.5096 0.117694
7930 1 1 4.62028 16.3088 0.670453
7897 1 1 4.65826 13.8668 0.569876
345 1 1 7.72129 15.082 37.2091
344 1 1 9.51076 15.1725 1.35348
738 1 1 8.41761 16.0256 37.2063
7929 1 1 10.9068 15.3157 0.786235
1533 1 1 11.8631 14.6978 0.994952
7436 1 1 11.7099 15.1548 0.0471369
7858 1 1 14.071 15.0163 0.355176
7920 1 1 15.2102 15.3149 0.496791
670 1 1 16.6482 15.3629 1.20336
278 1 1 18.1136 16.713 1.53249
7870 1 1 17.852 15.688 1.42782
791 1 1 1.70427 16.8947 0.343587
398 1 1 1.54312 17.2886 1.24571
310 1 1 0.384795 16.2604 0.943661
331 1 1 2.63171 17.2691 0.94987
7602 1 1 2.21035 15.9167 0.347612
397 1 1 4.02461 17.0907 0.815091
7086 1 1 3.59818 15.9207 0.710732
7555 1 1 5.68248 16.7669 1.93956
340 1 1 6.25503 16.7806 0.909569
7695 1 1 5.63682 16.5658 0.0647653
768 1 1 7.30479 15.7509 0.170826
249 1 1 7.38002 17.5573 37.4037
6936 1 1 7.29334 17.2441 0.988036
7667 1 1 10.5688 17.0424 37.2446
286 1 1 9.37851 17.3174 0.362011
7613 1 1 9.10387 16.1793 0.511205
675 1 1 11.0988 17.4935 0.581843
7437 1 1 13.0823 17.9708 1.03715
7994 1 1 11.277 16.0631 1.40297
7951 1 1 12.7994 17.2142 0.0757083
64 1 1 13.606 17.1217 1.52587
7147 1 1 13.6757 15.3364 1.20227
785 1 1 15.6782 17.2385 37.3646
7963 1 1 15.7748 16.6012 0.590786
1199 1 1 17.9493 15.6605 36.9519
834 1 1 18.7168 17.6553 0.562612
7844 1 1 17.313 16.562 0.910765
439 1 1 0.408049 18.5955 0.615926
7926 1 1 2.62892 18.336 1.55535
318 1 1 1.95075 0.120599 37.6098
7848 1 1 1.66532 18.4575 0.814882
6767 1 1 4.51994 18.614 0.718091
7532 1 1 5.43782 17.5848 0.741957
7661 1 1 5.47166 18.7422 0.350978
7620 1 1 8.5872 18.2443 1.71926
141 1 1 7.97587 17.9463 0.605079
329 1 1 6.87815 18.4126 0.0667465
338 1 1 7.34567 0.488315 0.858916
740 1 1 9.94334 17.6127 1.09958
749 1 1 11.7303 18.6365 0.180714
837 1 1 15.1825 18.0737 0.617695
6832 1 1 14.2523 18.5818 1.03752
79 1 1 16.941 17.6133 0.564201
7638 1 1 17.787 18.5634 2.2809
1713 1 1 18.3845 18.7354 37.2615
105 1 1 0.329925 17.2095 1.31206
1158 1 1 18.6104 0.494344 2.24923
491 1 1 0.428012 1.38354 3.61261
7996 1 1 3.09657 1.09742 2.27691
7651 1 1 2.0046 0.260488 1.6924
35 1 1 0.956122 0.540665 2.4771
778 1 1 2.16241 0.506973 3.32997
323 1 1 5.26091 1.69893 1.47895
1210 1 1 7.8424 18.3453 2.58055
419 1 1 7.57844 0.523959 2.06511
1541 1 1 8.56595 0.435548 2.39854
553 1 1 10.1528 1.79556 3.34369
1130 1 1 11.7095 0.715258 2.66307
504 1 1 9.66949 1.09749 2.60536
375 1 1 13.1845 0.338023 2.35536
7779 1 1 13.3794 0.24985 1.01978
353 1 1 11.8331 0.799715 3.8118
1138 1 1 13.6145 1.07287 1.58801
7989 1 1 13.9014 1.68017 0.765472
7990 1 1 14.1118 0.0989877 1.98934
784 1 1 17.4629 0.54649 1.64547
151 1 1 16.4065 0.282374 2.60835
1146 1 1 15.9557 18.6102 1.11627
899 1 1 18.4835 0.0712442 3.23066
7950 1 1 0.245359 1.57768 2.05705
483 1 1 0.739912 2.55278 2.26312
2134 1 1 1.07079 2.49241 3.27232
321 1 1 3.62881 1.76745 3.18116
802 1 1 3.16663 0.0537033 2.79557
503 1 1 4.27955 0.950023 3.19386
487 1 1 6.82535 18.5611 2.44912
7616 1 1 7.05458 1.08729 2.87646
7585 1 1 6.77544 1.29058 1.6271
764 1 1 9.03164 1.52155 3.2219
496 1 1 7.46795 2.77116 2.01018
726 1 1 8.27534 1.76151 2.37611
416 1 1 8.90326 1.56795 1.49567
1308 1 1 10.3848 2.55681 4.12379
500 1 1 11.4707 1.78297 2.61358
1196 1 1 12.8327 2.11576 0.865987
460 1 1 12.8715 1.56814 2.33232
7911 1 1 11.6118 1.39153 1.52796
7708 1 1 14.8194 2.8478 0.763753
422 1 1 13.5734 2.13829 1.88
7997 1 1 12.7749 2.76882 2.32776
1223 1 1 15.5981 1.82283 1.15514
1238 1 1 16.6251 3.06216 1.17257
157 1 1 16.817 1.96069 2.5657
1717 1 1 18.2717 2.85927 2.32075
7756 1 1 0.0161582 3.53038 0.6098
1634 1 1 18.5473 4.40372 1.51463
520 1 1 2.88966 3.1047 1.95988
1280 1 1 2.83602 4.25097 2.27058
7715 1 1 1.9423 3.50038 2.16134
523 1 1 0.447029 3.58688 1.63428
1932 1 1 4.54225 3.76274 3.29412
89 1 1 5.70451 3.1496 1.51457
527 1 1 5.78844 3.93201 2.7664
43 1 1 4.54854 2.47415 2.22945
60 1 1 6.69144 3.59796 0.968412
1168 1 1 6.36733 2.36829 2.13184
887 1 1 6.81698 3.64851 3.7865
7296 1 1 6.77365 3.54958 2.3723
7698 1 1 9.22811 5.1588 1.8491
1337 1 1 8.40294 4.60681 1.21911
7700 1 1 9.75046 2.8045 2.9076
217 1 1 10.3257 3.84396 3.32688
7656 1 1 10.172 3.55625 1.33705
781 1 1 12.0035 2.98135 1.2235
224 1 1 10.155 4.47434 2.48907
616 1 1 11.7849 2.8805 2.79281
7665 1 1 11.9745 5.44968 1.97989
874 1 1 14.1878 3.24061 1.5105
7552 1 1 15.3933 3.20779 2.76504
1670 1 1 15.6127 3.12539 1.52442
1640 1 1 16.7767 4.06535 0.969117
1315 1 1 17.4035 3.40876 3.20385
525 1 1 17.5866 3.99571 2.26546
481 1 1 18.7937 5.16954 2.52213
1751 1 1 18.8196 5.48923 1.46303
6804 1 1 1.1723 5.39573 1.53992
7643 1 1 2.21478 5.68791 1.98584
1776 1 1 3.09292 5.56985 2.49604
7685 1 1 5.9059 5.19463 3.0089
1045 1 1 5.98927 6.21455 2.93869
1339 1 1 3.92782 4.81097 1.71512
130 1 1 6.25154 4.26895 1.79911
94 1 1 7.66037 4.41732 3.30873
1373 1 1 7.2988 4.74563 1.71233
1701 1 1 10.1043 5.33784 2.98613
581 1 1 10.2717 5.56864 2.01821
147 1 1 12.1537 5.39004 3.32542
954 1 1 13.138 5.16032 2.03726
100 1 1 13.9558 4.11622 2.33854
908 1 1 15.289 5.08122 2.56989
156 1 1 14.2083 5.44702 2.80913
1194 1 1 17.3567 5.42883 2.81084
801 1 1 16.7334 4.51455 2.36289
1316 1 1 17.6922 5.12221 1.67595
522 1 1 1.553 6.98795 4.11625
1323 1 1 1.22365 6.49477 2.09553
1806 1 1 0.587196 7.12962 0.848233
241 1 1 1.96744 7.40881 2.50346
1409 1 1 3.6614 4.48056 2.82496
729 1 1 1.99332 6.36326 3.08554
566 1 1 4.74482 5.21675 2.56002
7718 1 1 5.3596 7.54291 3.17315
10 1 1 6.124 6.74807 0.890266
1296 1 1 7.46706 5.92341 1.98834
7762 1 1 6.84956 7.29626 1.46527
376 1 1 8.56248 5.78463 1.36987
497 1 1 9.74358 6.44173 1.51459
555 1 1 10.8396 6.5373 3.36866
587 1 1 9.0238 6.44942 2.24113
446 1 1 10.0391 6.40543 2.69533
140 1 1 10.2359 7.60342 2.28229
498 1 1 11.0534 6.24599 2.37654
1668 1 1 12.5831 6.03377 2.44441
552 1 1 13.7631 6.34785 2.84398
515 1 1 14.3601 7.18751 1.60548
1359 1 1 14.8508 6.33161 1.11
1037 1 1 15.5387 6.42687 2.76857
1637 1 1 16.5037 6.92462 3.3877
1754 1 1 17.656 7.25722 3.82888
1360 1 1 18.5981 6.15415 3.0255
1318 1 1 17.004 6.64882 2.42448
45 1 1 1.55106 8.5075 2.43224
158 1 1 0.696101 8.65117 2.02698
81 1 1 3.69791 7.55507 0.933598
720 1 1 2.45543 9.24295 2.99395
1766 1 1 2.81243 7.58605 1.78
852 1 1 3.19316 7.09048 3.21942
153 1 1 3.57482 8.60804 3.50223
637 1 1 4.72705 7.89159 2.30005
1781 1 1 4.61185 8.16654 3.41527
138 1 1 6.11247 7.1972 2.39574
53 1 1 6.86403 8.31878 2.76781
2177 1 1 5.32793 8.81383 2.55289
1085 1 1 6.6764 9.35127 2.20449
1727 1 1 8.62955 7.36172 2.72769
177 1 1 9.16264 7.68396 0.236196
1098 1 1 9.15749 7.56144 1.88174
890 1 1 9.22948 7.98725 3.29619
232 1 1 9.72844 8.39961 2.57338
231 1 1 11.2695 7.92685 2.1742
948 1 1 11.6079 7.08506 2.9488
1441 1 1 13.8952 8.36965 1.56694
2153 1 1 13.3754 8.13369 3.45065
193 1 1 16.0844 8.30003 2.15163
7798 1 1 14.3644 7.78341 2.78214
594 1 1 16.0027 8.59855 3.22036
7397 1 1 16.8048 7.7121 2.68407
7721 1 1 0.0634692 7.09343 1.72467
441 1 1 0.933878 9.16369 3.02272
7800 1 1 1.7002 9.15236 1.28625
7806 1 1 2.59134 9.52607 1.51158
6484 1 1 2.19184 9.90116 4.30873
564 1 1 3.08685 8.82767 2.27665
1041 1 1 4.35625 8.98313 2.88367
374 1 1 6.15669 11.8033 2.45177
7734 1 1 6.14607 10.1088 1.29288
536 1 1 7.27079 10.4917 2.34911
7377 1 1 8.02148 8.37665 2.4447
1420 1 1 8.04362 9.7362 1.93715
7774 1 1 9.29137 9.17898 3.20264
7712 1 1 12.1716 9.07983 2.98251
1020 1 1 10.6094 9.39637 2.42948
1478 1 1 13.4389 8.90893 2.50181
7808 1 1 11.2296 10.4151 1.90684
1430 1 1 12.1144 9.63945 1.87498
276 1 1 15.7958 9.85061 2.9421
1033 1 1 16.8957 8.87176 2.40952
308 1 1 18.7681 9.34321 2.5056
393 1 1 0.639428 10.344 2.35517
7931 1 1 1.53293 9.84388 2.16377
206 1 1 2.03135 11.506 1.00149
1852 1 1 1.56445 11.4342 2.60679
201 1 1 2.43504 10.5134 3.10398
983 1 1 3.77284 9.75302 2.14305
357 1 1 6.86187 11.1042 1.54644
1376 1 1 4.7983 10.6484 2.58137
526 1 1 4.77848 11.274 1.70999
1008 1 1 5.95066 11.9085 1.30311
1089 1 1 6.85606 11.8352 3.32568
1135 1 1 7.35322 11.7776 2.32216
1532 1 1 8.00007 10.8152 1.48316
1065 1 1 8.2772 10.9788 2.51876
615 1 1 8.87438 10.1195 2.35772
1790 1 1 9.55352 9.42718 1.42403
492 1 1 9.89689 10.3302 3.37593
227 1 1 10.7003 12.1891 3.88362
7811 1 1 11.8867 12.1515 1.37481
1044 1 1 11.1965 9.93982 3.23573
638 1 1 13.567 11.0518 2.61646
593 1 1 11.8248 10.7491 3.13235
1074 1 1 13.8383 10.6546 1.67844
7395 1 1 14.7341 10.927 2.36261
669 1 1 16.2677 10.9094 3.10468
7804 1 1 17.4183 10.8314 2.81866
349 1 1 17.3788 9.75381 2.27632
6569 1 1 18.1725 11.4405 2.44903
7322 1 1 0.558844 12.0468 2.59588
162 1 1 1.15947 10.9268 1.07872
1005 1 1 2.11203 12.0844 2.0748
327 1 1 2.26427 13.1262 1.61411
925 1 1 4.58725 12.2801 3.46828
7928 1 1 2.84111 10.7691 1.88753
233 1 1 3.19295 11.9609 2.40259
342 1 1 5.08562 12.1548 1.01063
1486 1 1 5.63585 13.4126 2.93801
1017 1 1 7.46171 12.9284 2.27498
699 1 1 8.83187 11.7162 1.64077
1103 1 1 9.63773 12.2287 2.01089
1822 1 1 10.3947 12.0508 2.77946
610 1 1 10.2793 10.6926 2.52864
1153 1 1 13.5151 12.8717 1.77818
1538 1 1 13.8923 12.9315 2.70613
878 1 1 14.0887 11.6404 1.92327
1073 1 1 15.3185 11.8814 2.03625
7444 1 1 15.1834 10.8365 1.30872
2234 1 1 15.8947 12.1598 0.589299
559 1 1 17.088 11.8215 2.524
7791 1 1 16.4613 11.9706 3.34436
1484 1 1 16.3157 12.8997 2.31008
7757 1 1 18.0382 12.4566 1.97949
404 1 1 2.22469 13.1192 2.94581
7052 1 1 0.434472 14.1186 1.1786
1128 1 1 1.53635 14.003 1.8347
2373 1 1 4.38254 13.1362 1.43
7180 1 1 5.29646 14.7093 3.05258
7487 1 1 4.3989 12.9547 2.44806
691 1 1 6.15141 14.0687 2.31767
2661 1 1 7.47697 14.027 2.93355
7936 1 1 6.45665 13.2532 1.55361
225 1 1 8.94401 13.0252 2.25417
1133 1 1 9.00382 14.8825 2.27082
7945 1 1 10.1199 13.2638 2.08411
736 1 1 9.78409 13.3583 3.24432
1501 1 1 10.9241 13.9461 1.09423
7464 1 1 10.3089 13.2122 0.604097
259 1 1 12.5282 14.0376 1.51787
2244 1 1 11.8359 13.2262 2.12907
1942 1 1 14.3501 13.9019 2.95985
1368 1 1 14.962 13.7915 1.94515
608 1 1 14.7442 14.2415 0.667537
7515 1 1 17.5402 13.3674 2.23464
1389 1 1 18.288 14.6728 2.74201
1439 1 1 1.23555 12.949 1.77812
1427 1 1 18.5126 13.9742 1.92022
7968 1 1 0.625398 15.5388 1.87547
686 1 1 1.39572 16.5901 2.35779
7658 1 1 1.5921 15.2444 2.17965
590 1 1 0.56584 13.4125 2.54852
609 1 1 2.97667 16.4078 1.47207
7835 1 1 2.66976 14.9133 1.91554
1081 1 1 4.31793 15.7018 1.74885
1446 1 1 3.38821 15.6035 2.53799
7503 1 1 6.22939 14.9944 1.76593
1485 1 1 4.87758 15.9522 2.59959
7123 1 1 5.25434 15.3129 1.81213
7579 1 1 7.30665 14.0655 1.41642
690 1 1 7.9469 15.6745 1.31975
773 1 1 6.99148 15.8564 1.21141
31 1 1 10.4459 15.3357 1.67543
304 1 1 9.80025 14.2774 1.55781
1170 1 1 9.69132 15.6855 2.37543
7531 1 1 8.71827 15.4296 3.27791
7508 1 1 11.8839 15.5781 3.20936
7829 1 1 11.9649 14.4937 2.36284
7834 1 1 13.7458 13.8568 1.95848
273 1 1 14.1406 15.2043 3.00928
1192 1 1 13.381 16.1629 2.17237
7075 1 1 14.427 14.6373 1.54154
990 1 1 15.2041 15.3665 2.46281
7551 1 1 15.5402 16.2537 1.5257
306 1 1 16.5149 14.0753 0.797854
1561 1 1 16.3322 13.9804 2.06649
1149 1 1 18.1367 16.8187 2.91725
394 1 1 1.39624 16.7906 4.07063
248 1 1 2.91549 16.7826 2.61044
755 1 1 1.68281 15.9387 1.46406
7972 1 1 3.36561 17.4678 1.72429
643 1 1 3.91796 16.5173 2.10289
7455 1 1 4.49933 17.8227 1.78825
1131 1 1 5.40116 17.3674 2.80281
292 1 1 6.41123 17.4908 2.17532
1172 1 1 5.89675 15.7107 1.02559
16 1 1 8.03449 16.0219 2.682
700 1 1 8.01232 16.4616 0.586608
346 1 1 9.33472 17.0384 2.25526
381 1 1 8.85173 16.1793 2.06177
1506 1 1 10.3849 16.505 2.45388
1226 1 1 10.2113 16.3307 0.414072
658 1 1 12.4175 17.212 1.41384
379 1 1 12.628 15.4289 1.02926
2062 1 1 12.2676 15.9567 1.97773
1107 1 1 14.2045 16.5404 2.71329
7040 1 1 15.9068 17.3598 1.3768
1537 1 1 14.2362 15.7149 1.88589
33 1 1 16.5093 16.398 1.50889
1233 1 1 16.3677 17.048 2.32684
7561 1 1 0.564471 17.2331 2.23961
1474 1 1 17.4326 17.5679 2.12721
1198 1 1 1.03469 18.2193 1.79508
412 1 1 0.411607 18.4121 2.53984
7197 1 1 1.15863 17.5414 3.04745
1481 1 1 1.56964 18.4429 2.63199
155 1 1 3.60555 0.0189013 1.35319
325 1 1 3.7036 17.8681 2.8291
207 1 1 4.4652 18.6985 2.46958
7896 1 1 4.99974 0.768799 1.87376
889 1 1 5.42752 18.4398 1.9589
363 1 1 6.29379 18.1076 1.40025
27 1 1 8.60048 16.9885 1.33275
1174 1 1 7.51362 18.3815 1.41177
7913 1 1 11.756 18.2299 2.33816
820 1 1 9.91886 18.4144 3.3102
7550 1 1 9.56789 18.7076 2.32368
22 1 1 12.3818 18.5329 1.4309
982 1 1 10.6462 17.4514 1.89019
391 1 1 11.6883 17.1105 2.18421
433 1 1 13.0023 18.0343 2.24235
1272 1 1 14.9319 17.6444 1.68697
754 1 1 15.7371 18.3141 2.10685
2033 1 1 16.701 18.0628 2.96111
40 1 1 18.3863 17.7952 2.75416
800 1 1 17.8798 1.29146 2.66234
888 1 1 1.1031 18.4735 3.70395
1200 1 1 0.272693 0.437823 4.17189
1106 1 1 2.27066 1.13351 4.32981
843 1 1 2.93831 18.4304 3.77765
7614 1 1 4.76938 17.8074 3.55748
1201 1 1 6.03262 1.02251 2.46328
777 1 1 5.72023 0.880149 5.33844
7678 1 1 5.99762 0.536811 3.36944
1141 1 1 7.03616 0.426894 5.00083
1584 1 1 5.92293 0.383755 4.43566
6 1 1 9.47075 18.3429 4.23475
855 1 1 8.30064 0.949668 3.23976
1548 1 1 10.3791 18.1423 4.5173
1250 1 1 10.8555 0.246698 3.09349
869 1 1 11.0014 1.40818 3.77651
139 1 1 13.5749 1.74552 3.11962
941 1 1 11.9432 0.0114445 4.49542
20 1 1 13.1421 0.457135 4.11869
7155 1 1 14.4341 1.2827 2.26421
7478 1 1 15.3664 0.596623 2.40228
1187 1 1 14.9984 18.4109 2.73118
7887 1 1 17.2229 0.248564 4.57747
364 1 1 18.2477 0.698874 4.6881
2029 1 1 17.3318 0.145228 3.04782
884 1 1 0.0228339 2.15609 3.01806
336 1 1 2.54794 1.48985 3.45774
47 1 1 2.24479 2.30832 4.28737
1129 1 1 2.42611 1.31808 5.47755
1638 1 1 3.55898 1.054 4.06476
7298 1 1 4.84177 1.73379 4.03549
1340 1 1 4.62187 2.7744 3.54467
971 1 1 6.18503 2.08893 3.10277
93 1 1 5.46633 2.92701 2.99262
937 1 1 7.77777 2.33925 4.70046
1582 1 1 7.66762 1.72921 3.49572
7150 1 1 9.39647 2.08785 4.73705
863 1 1 8.50235 1.80486 4.11738
511 1 1 11.3913 2.7895 3.84908
26 1 1 13.9151 1.48263 4.54981
821 1 1 12.2199 2.98235 4.48688
7619 1 1 12.6891 2.69872 3.47068
818 1 1 11.6737 2.08956 4.66065
1540 1 1 14.3493 2.33375 3.87876
427 1 1 15.3328 1.73653 3.28403
1964 1 1 15.0997 2.39993 2.282
752 1 1 16.254 2.30993 1.77567
756 1 1 16.2306 2.37399 3.82536
115 1 1 17.6977 0.804836 3.82384
450 1 1 0.406811 3.34206 3.21728
1636 1 1 0.205561 4.15267 2.48523
603 1 1 2.35582 4.78844 3.6338
1738 1 1 2.07466 2.89153 3.38073
1216 1 1 4.63511 2.87683 4.53525
767 1 1 3.02547 4.67082 4.97178
885 1 1 5.38037 3.70869 4.14961
734 1 1 5.78205 4.00649 5.552
1336 1 1 7.1108 4.75821 4.1014
977 1 1 6.39514 2.42575 4.27374
41 1 1 8.64674 2.49816 3.32769
1206 1 1 7.42371 2.88717 3.89576
611 1 1 8.21917 3.45378 3.91226
850 1 1 9.34226 3.02054 4.31584
1687 1 1 10.6523 3.5642 2.39035
876 1 1 9.84838 4.23253 4.29275
824 1 1 12.9919 4.15705 2.53635
588 1 1 11.7875 3.72861 3.63191
426 1 1 12.9419 4.07411 4.26908
1597 1 1 13.0211 4.72409 3.36159
543 1 1 13.3459 3.60658 3.24751
514 1 1 14.3295 3.30212 2.88599
495 1 1 14.8207 3.23151 4.0191
910 1 1 15.8159 3.37444 3.8254
119 1 1 14.9556 4.57592 3.38441
2159 1 1 16.5292 2.94649 2.6237
7228 1 1 18.3082 1.8863 4.06953
1197 1 1 1.63173 4.19758 3.26557
1241 1 1 18.5518 6.37772 3.9435
848 1 1 1.14035 4.37195 2.00259
1334 1 1 1.45512 5.80719 5.55008
98 1 1 2.62077 3.81917 3.27311
1330 1 1 3.22661 5.36121 3.44422
2136 1 1 5.15413 4.58994 3.65936
965 1 1 6.02617 5.0568 4.95929
1729 1 1 4.11931 4.61337 4.32789
7219 1 1 6.94211 5.67546 5.3589
180 1 1 7.03628 5.11368 3.04023
1331 1 1 7.69768 5.61086 4.54644
1066 1 1 8.24818 4.66274 4.10031
2150 1 1 9.21355 4.75899 3.19907
909 1 1 11.0495 5.07344 2.47313
1229 1 1 11.0972 4.56036 3.7068
173 1 1 11.1274 5.49007 3.38242
32 1 1 12.8085 6.33073 3.34207
1413 1 1 11.6802 5.83548 4.47598
947 1 1 12.0874 4.75687 4.20424
470 1 1 13.651 4.89992 4.73189
2232 1 1 13.4654 5.59484 3.7219
509 1 1 15.7942 5.57914 3.35358
1202 1 1 14.9495 5.42537 4.15447
2071 1 1 16.3858 4.01043 3.22459
1759 1 1 16.0337 5.71359 4.56957
1355 1 1 17.8623 4.3771 4.22288
1275 1 1 16.0546 4.56228 4.15054
560 1 1 0.546222 4.31233 3.94234
568 1 1 0.711451 7.30082 2.62387
2357 1 1 1.64239 5.45202 4.23954
808 1 1 2.65039 6.49273 3.95698
489 1 1 1.57835 5.22784 3.17424
239 1 1 4.18565 5.59536 3.51127
936 1 1 2.96961 7.06063 4.94704
1299 1 1 5.04545 6.29943 3.7597
898 1 1 6.77749 6.08047 3.65885
1732 1 1 5.85876 6.84854 3.77273
932 1 1 7.25405 6.78803 2.92475
1333 1 1 8.09521 5.1577 2.49956
1381 1 1 7.73018 5.97081 3.08824
2126 1 1 8.97024 6.97954 3.66737
2103 1 1 9.03661 5.97987 3.20395
1015 1 1 9.6681 5.65876 4.1168
7850 1 1 11.3544 6.85825 4.21263
862 1 1 12.3281 8.09062 3.23305
1354 1 1 12.575 5.8303 5.15989
1463 1 1 12.6168 6.81894 4.23312
1438 1 1 14.0143 7.19214 3.64089
7714 1 1 13.5849 6.52094 4.22016
2269 1 1 15.5113 7.32845 3.28427
1648 1 1 14.6217 6.2603 3.61286
1793 1 1 15.4822 6.68688 4.36653
1443 1 1 17.5146 5.96378 3.68893
1488 1 1 18.4866 7.73728 3.10008
1677 1 1 18.0326 6.05614 5.2103
927 1 1 1.46776 8.32945 3.77886
449 1 1 2.68393 8.4516 3.96459
90 1 1 2.24727 7.51889 3.65487
966 1 1 4.40926 7.31203 3.83491
1051 1 1 5.56609 7.97114 4.37262
7843 1 1 6.27876 8.37557 4.87532
571 1 1 6.68283 7.98261 3.77489
1466 1 1 10.0579 7.08994 4.16812
951 1 1 7.88303 8.16491 3.48054
7827 1 1 10.5108 7.93808 3.47361
1378 1 1 9.55499 8.35192 4.27517
1019 1 1 10.7674 8.06004 4.59936
2094 1 1 11.3585 7.50752 5.29339
1387 1 1 11.5514 7.79064 3.87616
1036 1 1 14.0288 9.05461 3.27255
1429 1 1 12.2942 7.72299 4.67851
1395 1 1 13.3684 8.74389 5.72413
2154 1 1 15.2347 8.98907 2.3638
1798 1 1 14.8597 8.51222 3.42944
134 1 1 16.2848 8.14472 4.26969
996 1 1 17.4072 8.29244 4.03271
1350 1 1 17.6643 8.38848 2.94591
311 1 1 18.0535 9.37776 3.38898
6867 1 1 1.27076 9.27223 4.1958
1365 1 1 1.42131 10.1665 3.09348
1850 1 1 1.92649 8.85175 4.81464
315 1 1 4.2147 9.93955 3.85277
358 1 1 4.97617 9.15627 3.73539
586 1 1 5.69404 9.56453 4.63518
7823 1 1 4.73068 8.59052 4.55826
1421 1 1 6.16836 9.28916 3.21634
208 1 1 6.93867 8.86899 3.88016
988 1 1 7.46527 9.42907 2.8993
2065 1 1 9.23456 9.8278 4.06249
649 1 1 11.3589 8.74301 3.37982
1390 1 1 11.5999 8.54269 4.4952
606 1 1 12.6335 8.6624 3.94754
1718 1 1 13.9122 9.77014 2.09523
108 1 1 14.5892 10.0013 2.92328
1714 1 1 13.9547 8.68709 4.66948
2645 1 1 16.2206 9.70083 4.25175
1353 1 1 16.8016 9.0533 3.68249
1396 1 1 17.2268 10.0306 3.34663
1556 1 1 17.3745 9.36783 4.56096
1403 1 1 0.122289 10.0996 3.52864
1521 1 1 1.12474 10.3454 4.30794
1001 1 1 0.984357 12.7696 3.17491
365 1 1 0.895053 11.0741 3.61821
2084 1 1 2.62712 10.9844 3.99695
7482 1 1 3.88464 10.9854 3.68851
573 1 1 5.54155 11.4131 3.68857
1050 1 1 7.53042 11.387 3.86574
255 1 1 7.59287 12.5803 3.37902
694 1 1 10.2487 9.15456 3.64513
1695 1 1 8.58167 10.7298 3.58791
1111 1 1 10.5162 11.0289 4.58329
211 1 1 11.8581 9.54774 3.93862
1039 1 1 12.9568 9.90037 2.51975
303 1 1 12.9632 11.7498 3.22364
136 1 1 11.574 11.0118 4.09903
78 1 1 14.6213 12.0206 3.06579
955 1 1 12.755 10.6984 3.77325
7428 1 1 15.0433 10.9232 3.36139
914 1 1 15.9811 10.8497 4.30371
642 1 1 16.8196 11.6141 4.17064
757 1 1 17.9094 11.504 4.241
1475 1 1 18.7556 11.2685 3.42662
1878 1 1 17.9797 10.3398 3.98606
557 1 1 18.3676 10.3699 2.34598
125 1 1 2.4174 14.5758 4.05379
1163 1 1 2.1064 11.6223 3.44506
288 1 1 2.91225 12.3665 3.40585
7888 1 1 3.00626 13.5225 3.52395
1287 1 1 3.50037 11.7079 4.33885
1411 1 1 5.22434 12.7746 4.14843
621 1 1 6.52538 13.3116 3.46922
574 1 1 9.31624 12.5031 3.49785
1983 1 1 9.635 11.3082 3.05965
277 1 1 11.1426 12.4642 2.16962
622 1 1 11.3887 13.2292 4.32466
2112 1 1 11.8608 12.0671 3.40238
667 1 1 12.7593 13.7041 2.62062
600 1 1 14.5115 13.3073 3.67468
991 1 1 12.9853 13.0046 3.5047
7907 1 1 14.1356 11.0344 4.2822
6719 1 1 15.595 12.7719 3.35414
240 1 1 15.3365 11.9398 3.89744
967 1 1 16.5186 12.872 4.16753
968 1 1 15.597 13.748 3.6734
1159 1 1 0.292888 12.652 4.61692
251 1 1 18.3902 13.2752 2.91341
1450 1 1 3.14227 13.1005 2.20968
688 1 1 2.0562 14.5511 3.06415
627 1 1 3.75007 14.711 1.8255
2343 1 1 6.03754 13.4163 4.5598
7784 1 1 7.08293 13.6557 4.71706
213 1 1 8.37872 13.2531 3.56448
1939 1 1 9.46066 13.3226 4.40406
2017 1 1 10.9189 14.1235 4.02411
628 1 1 13.6942 14.3356 3.54642
1432 1 1 11.5155 14.0491 3.25008
747 1 1 14.9227 12.3187 4.94619
1825 1 1 14.9874 12.9662 2.52964
1120 1 1 16.6597 14.1889 3.76592
1042 1 1 17.1886 13.6145 4.46598
597 1 1 17.3135 13.493 3.40447
639 1 1 18.0504 14.2833 3.84284
282 1 1 18.6902 15.6011 3.1355
1487 1 1 0.859955 13.7663 3.53289
1550 1 1 2.57815 15.5028 3.91848
2367 1 1 1.16523 15.0433 3.20731
7900 1 1 3.57166 14.2393 4.5474
350 1 1 3.63465 15.0158 3.80345
1217 1 1 6.17358 15.7577 2.58017
687 1 1 7.11963 15.0152 2.47581
7975 1 1 6.99134 16.5671 2.2327
1530 1 1 7.37942 15.4611 4.10302
1145 1 1 6.55822 14.5459 3.70589
7543 1 1 8.13377 15.6741 4.87347
253 1 1 7.84339 14.1448 3.97223
1527 1 1 7.00004 15.8565 5.02565
1579 1 1 8.87075 16.2477 4.31506
1139 1 1 9.49435 14.6146 3.13487
317 1 1 9.99984 15.3675 3.60016
1906 1 1 10.9656 14.931 2.69306
254 1 1 11.0861 15.0274 3.66219
7838 1 1 12.9969 15.4827 3.08885
269 1 1 14.6696 14.2932 3.83687
663 1 1 16.3244 15.3732 3.08549
629 1 1 16.7415 16.4696 3.50197
2037 1 1 16.6723 15.2487 2.10556
1046 1 1 17.2102 15.2521 3.78514
724 1 1 0.824555 16.1086 3.10728
727 1 1 2.09487 16.8002 3.21963
1156 1 1 1.67918 15.5809 4.39989
1449 1 1 2.54179 16.7058 4.44946
1211 1 1 3.19482 17.4156 3.77969
682 1 1 2.19892 16.0413 2.6073
1453 1 1 4.30141 15.8913 3.98724
693 1 1 3.18656 16.1059 3.40917
1134 1 1 7.03138 17.3081 3.1032
704 1 1 5.08254 16.823 3.89872
7856 1 1 9.29873 17.2264 3.68994
7980 1 1 8.17375 16.6701 3.54337
19 1 1 9.60416 16.2809 3.20462
1184 1 1 10.8703 16.1256 3.58251
1151 1 1 12.8512 16.1567 4.09036
7872 1 1 14.2957 16.6921 3.81345
790 1 1 13.5012 17.2382 4.17268
823 1 1 13.3745 16.5629 4.96099
798 1 1 12.7383 16.9398 2.53114
234 1 1 15.5429 16.1576 3.55621