ITEM: TIMESTEP
2700
ITEM: NUMBER OF ATOMS
8000
ITEM: BOX BOUNDS pp pp pp
0.0000000000000000e+00 1.8820720577620570e+01
0.0000000000000000e+00 1.8820720577620570e+01
0.0000000000000000e+00 3.7641441155241139e+01
ITEM: ATOMS id mass type x y z
2134 1 1 0.236629 0.181956 0.744676
420 1 1 1.22876 0.864566 0.0298659
445 1 1 2.88516 0.693119 0.360909
834 1 1 2.77673 0.941017 1.72119
776 1 1 18.8126 1.94736 36.8148
105 1 1 3.84089 0.581391 1.35795
7919 1 1 4.50465 1.53708 1.435
6851 1 1 6.18298 1.72663 1.76205
886 1 1 6.99811 0.86735 0.844137
94 1 1 6.99867 2.46568 1.63982
7349 1 1 10.9875 0.418701 2.75512
7785 1 1 9.74225 2.96131 2.29222
141 1 1 9.84302 0.251716 1.04247
11 1 1 14.8497 0.637915 35.2052
781 1 1 12.0619 18.7859 2.94311
422 1 1 13.5398 1.95115 36.3815
7708 1 1 17.9535 17.9963 36.9676
7987 1 1 13.6081 18.2408 1.17751
7669 1 1 17.1815 1.02242 37.0815
1142 1 1 18.1852 17.8227 0.368194
366 1 1 0.29631 0.782914 36.0086
351 1 1 16.8851 0.415331 36.1215
7950 1 1 0.49633 4.54407 0.874585
318 1 1 2.78441 5.09667 36.7797
18 1 1 2.79927 3.24972 1.08034
547 1 1 4.03679 3.87935 2.53819
62 1 1 3.70071 2.69218 1.26129
527 1 1 5.93359 2.81833 0.599882
6648 1 1 4.92409 3.01197 0.994271
529 1 1 8.05803 3.14233 1.45539
429 1 1 5.4011 2.13574 37.5908
464 1 1 10.1539 2.28558 1.73485
292 1 1 8.20748 2.04641 0.470174
7580 1 1 11.4545 2.63503 2.73685
7287 1 1 11.7973 2.27149 1.43087
7611 1 1 11.3612 4.6723 0.187799
787 1 1 13.3502 2.90384 0.136439
7549 1 1 12.3475 1.21547 4.85017
543 1 1 14.7685 2.74637 0.58806
356 1 1 13.1319 1.81029 0.644898
7713 1 1 12.1733 0.705501 37.4321
1634 1 1 16.7538 2.58147 1.02454
383 1 1 15.0716 0.778805 1.11267
1110 1 1 17.3977 1.8478 0.594214
35 1 1 16.5311 5.38695 0.935285
7690 1 1 0.280268 2.81029 1.31917
7972 1 1 1.25167 2.73958 1.08411
34 1 1 1.28386 5.11848 1.33957
7647 1 1 0.97878 1.21128 1.41611
835 1 1 3.6106 6.79295 1.18514
1239 1 1 3.12922 2.3612 2.87007
7366 1 1 3.26229 4.93539 1.40987
219 1 1 2.90235 3.90926 0.165024
323 1 1 4.9716 6.1368 36.6649
7413 1 1 5.47538 4.70108 1.03659
217 1 1 7.5653 2.39465 37.2206
824 1 1 9.24829 3.26097 1.30386
779 1 1 9.70426 2.1302 36.7009
7591 1 1 13.9861 2.87666 1.66429
6821 1 1 10.1854 3.26051 36.3445
39 1 1 14.8407 4.19257 0.502765
6823 1 1 17.4674 2.82236 0.00608652
6399 1 1 14.6635 1.71813 1.57301
76 1 1 15.7984 4.59552 36.9338
7960 1 1 17.7213 5.0657 0.870577
81 1 1 0.131852 5.61739 2.5422
475 1 1 4.3622 7.79707 1.82626
1488 1 1 3.97253 2.9117 4.92041
6995 1 1 3.77584 6.28016 3.10021
7028 1 1 4.77305 6.09239 1.38335
623 1 1 6.38199 6.50809 37.0367
587 1 1 9.7917 4.21084 1.56941
1701 1 1 8.52242 1.63663 36.8593
107 1 1 12.4333 5.2114 2.58599
7422 1 1 12.1323 5.70344 36.4946
2153 1 1 14.7109 3.39454 2.26491
1109 1 1 12.2485 5.13942 0.540843
1309 1 1 15.004 4.62744 2.79609
7444 1 1 14.2025 5.23266 0.250816
591 1 1 14.8146 4.62866 1.64687
1718 1 1 17.4829 5.76299 1.96752
7636 1 1 15.7198 3.71338 0.0461621
6828 1 1 15.1342 5.31603 0.101661
6762 1 1 18.2081 6.1245 0.254568
6443 1 1 18.1315 7.31618 0.403849
7845 1 1 18.1181 7.88183 1.39118
966 1 1 2.31113 6.25165 1.28844
7424 1 1 4.12698 6.27209 37.1688
796 1 1 5.96436 6.16945 1.11977
488 1 1 7.50532 5.79809 1.70824
542 1 1 9.26246 4.73506 37.4175
178 1 1 8.83172 6.37854 1.47538
7071 1 1 7.59291 5.28879 37.1056
91 1 1 10.2895 5.26171 1.88536
7468 1 1 12.1342 6.695 36.3752
156 1 1 10.4012 5.77705 3.23221
461 1 1 13.1409 6.17143 0.487915
281 1 1 11.7448 6.27595 0.751408
908 1 1 14.8378 6.89707 3.6335
7440 1 1 15.8964 4.58272 1.51408
7756 1 1 13.3185 5.98009 1.92387
7641 1 1 0.0622533 7.77888 37.1406
560 1 1 1.46038 7.86798 2.22082
197 1 1 3.30244 6.68557 37.6186
10 1 1 4.21607 10.1614 0.378662
7643 1 1 4.94398 7.87656 0.793562
60 1 1 6.11615 7.51985 37.1818
153 1 1 6.5835 8.35498 1.32269
15 1 1 5.19297 8.65252 0.0785151
7002 1 1 6.36001 6.72469 0.345658
932 1 1 6.42193 9.57537 37.0249
973 1 1 9.55953 10.6641 0.804505
6933 1 1 10.2611 6.37897 37.6043
7654 1 1 8.97192 8.2554 0.122953
1020 1 1 11.4355 4.99169 2.81686
74 1 1 10.7203 7.67411 3.12799
538 1 1 15.7653 9.73192 1.11219
1238 1 1 10.7069 9.6078 34.3579
1044 1 1 10.3625 8.00499 1.38577
144 1 1 15.8065 7.45921 1.07961
349 1 1 16.0905 10.8411 0.371425
6316 1 1 13.8929 7.51885 0.730099
238 1 1 16.6951 7.78306 1.71354
118 1 1 17.1367 6.92663 0.206517
1318 1 1 0.767291 9.93633 37.4875
7758 1 1 17.0778 7.99965 0.547129
1360 1 1 0.98361 10.3003 0.989991
158 1 1 1.72044 9.21941 2.71043
997 1 1 1.23536 9.0549 0.71242
478 1 1 1.88975 8.02597 1.22071
7795 1 1 18.7845 9.32323 0.592165
7847 1 1 5.60801 14.0336 37.5822
1048 1 1 4.75257 11.054 0.636783
138 1 1 3.27439 10.7393 0.575601
6136 1 1 8.68572 8.59718 36.0983
645 1 1 6.21544 8.58053 0.261559
133 1 1 7.93816 9.87763 1.32827
7932 1 1 11.714 9.52503 36.5259
7825 1 1 9.76491 12.5029 35.6285
188 1 1 12.022 9.74451 0.922707
679 1 1 17.2835 10.6323 36.5738
308 1 1 15.4714 6.15034 1.11807
928 1 1 0.187306 8.55319 1.37681
6972 1 1 0.184203 10.4647 2.4568
7474 1 1 18.0178 10.5343 2.17437
202 1 1 1.91188 12.2461 34.8202
7812 1 1 1.53419 10.6132 35.7993
222 1 1 2.84441 9.74131 2.20217
7576 1 1 5.58258 11.3686 0.986135
16 1 1 7.29874 10.9142 37.6093
7894 1 1 4.84856 12.5569 37.0118
345 1 1 6.75367 11.5467 1.51222
7862 1 1 7.43583 10.6959 3.85685
154 1 1 3.39773 13.4098 2.62788
424 1 1 9.1496 9.731 35.5218
7538 1 1 11.4223 10.4876 1.35326
1790 1 1 10.6199 9.34395 2.45749
574 1 1 12.3969 10.526 0.441008
610 1 1 12.4388 9.32946 2.07146
7851 1 1 12.4859 11.3877 1.28724
7544 1 1 13.9286 11.4507 37.3508
4 1 1 17.2062 11.2963 0.0430537
7350 1 1 16.0823 13.0988 2.82412
165 1 1 17.8146 10.4673 37.4379
962 1 1 1.03136 12.0582 0.714294
203 1 1 4.2364 11.9169 0.500494
6578 1 1 1.81939 13.506 1.51361
215 1 1 1.91211 12.7869 0.478444
243 1 1 3.86233 13.2449 37.3082
7376 1 1 4.63918 13.5173 1.75961
773 1 1 6.80601 12.8915 0.0201241
453 1 1 7.11557 14.0669 0.0148539
1135 1 1 7.43075 11.964 2.6354
970 1 1 7.19358 13.2292 0.855584
699 1 1 7.91475 11.681 1.61777
1906 1 1 10.8104 9.20214 1.34026
993 1 1 10.9247 12.2974 0.179696
660 1 1 11.9011 13.5616 0.547377
256 1 1 12.8698 10.2092 1.57351
790 1 1 14.8039 11.349 2.18955
7811 1 1 14.5863 14.9851 2.31417
705 1 1 12.5648 13.0148 36.7962
7410 1 1 12.7778 13.7422 37.5439
1073 1 1 18.4173 11.4925 0.719019
7858 1 1 14.4767 12.485 2.06562
7052 1 1 14.7684 12.7386 2.97985
237 1 1 17.9004 13.0641 37.4072
7479 1 1 0.0448064 12.5453 0.37352
7817 1 1 1.21882 15.6531 0.841461
704 1 1 1.90255 14.5955 0.91507
751 1 1 1.48751 13.5108 3.65381
7004 1 1 6.88726 14.1662 2.65286
584 1 1 9.98039 15.4311 2.22307
7543 1 1 9.89531 14.7502 0.396637
7464 1 1 10.0516 14.0104 1.27249
7516 1 1 13.9675 15.7802 35.4477
1153 1 1 15.0527 12.9336 35.005
7898 1 1 13.8574 14.6648 1.02256
113 1 1 16.9439 13.8839 36.9812
7022 1 1 16.9153 13.3759 0.498218
306 1 1 16.9742 12.5602 2.02051
1108 1 1 15.9905 13.1939 35.7051
1561 1 1 1.10594 14.5903 3.17337
7086 1 1 3.22332 18.5778 0.568534
1173 1 1 1.81215 17.4634 1.10743
7934 1 1 1.9488 16.0194 37.1684
7180 1 1 3.95635 16.5922 1.00494
439 1 1 3.46057 14.1878 0.196175
7840 1 1 2.35795 15.6162 0.880489
7755 1 1 3.69199 15.5711 1.34738
287 1 1 8.04369 16.0253 1.08572
6411 1 1 6.39371 13.9524 0.871734
255 1 1 6.29214 14.0197 36.6736
7527 1 1 7.62085 13.6163 36.6778
229 1 1 8.35905 13.8843 37.5203
227 1 1 10.6319 15.8687 1.60514
7206 1 1 9.54492 15.6659 35.3307
7436 1 1 12.2684 13.4535 2.19838
7230 1 1 13.0506 15.7419 2.47233
7853 1 1 13.6763 14.3377 2.39972
7075 1 1 12.1208 15.3411 36.3635
1199 1 1 14.8913 13.6465 36.0063
1997 1 1 13.9823 13.865 36.8412
6905 1 1 17.4387 17.0443 1.95976
609 1 1 17.274 14.4474 0.289946
753 1 1 17.8317 15.212 36.2876
2159 1 1 0.908211 13.1212 0.638512
7560 1 1 18.7931 1.82883 0.90119
7163 1 1 0.17863 16.0962 36.5138
8000 1 1 2.99369 17.1832 3.07446
7930 1 1 2.01667 18.2431 0.517145
7886 1 1 5.63334 17.3089 37.5664
414 1 1 4.99104 15.343 36.9904
7610 1 1 7.68381 15.7121 0.0258143
7535 1 1 5.67548 0.331863 2.16149
738 1 1 7.59099 14.8684 0.443849
17 1 1 5.58 17.0973 36.373
419 1 1 6.57623 16.0937 1.39327
675 1 1 9.97271 16.5729 35.6002
2661 1 1 12.4339 17.9585 2.32288
7597 1 1 13.665 15.574 0.482004
6914 1 1 11.9764 18.094 37.47
7489 1 1 11.5838 16.5952 1.79624
7504 1 1 12.2421 16.8672 36.6766
7634 1 1 12.0177 15.9371 37.6242
7341 1 1 16.507 15.2129 1.40907
837 1 1 14.8071 14.7139 36.7489
278 1 1 18.4246 17.2515 2.67194
40 1 1 1.0304 18.376 1.32991
7122 1 1 2.88963 2.17293 1.38253
7964 1 1 5.60261 0.275186 0.800334
7416 1 1 6.77964 18.5324 0.653099
7267 1 1 3.91472 1.33741 0.10823
1485 1 1 6.81038 16.9547 0.56366
1584 1 1 9.59697 17.5278 0.0614389
7614 1 1 8.3028 18.4202 35.6754
7980 1 1 7.15843 0.443762 37.3885
391 1 1 7.76592 18.4402 0.136794
7994 1 1 11.1188 1.26227 1.01382
377 1 1 10.8264 17.4775 1.32938
7929 1 1 11.3283 16.6002 37.0807
7149 1 1 13.1254 0.595503 3.08132
7620 1 1 12.6733 16.8433 1.65949
7443 1 1 15.6946 13.8479 1.42863
5999 1 1 17.6182 16.8175 0.636012
7188 1 1 18.3614 17.4615 1.43193
692 1 1 18.4455 18.8183 36.3094
7635 1 1 16.4254 17.8853 4.07644
7265 1 1 18.3223 2.00128 1.9017
1198 1 1 1.26173 17.4743 4.6787
430 1 1 1.93235 1.72064 1.93626
7119 1 1 4.55175 0.552064 2.27455
686 1 1 1.76428 0.105524 3.08173
7926 1 1 5.49966 1.33015 3.35571
1168 1 1 6.04756 2.73822 2.79586
428 1 1 6.12623 17.5838 1.01724
7532 1 1 5.06834 2.15781 2.24262
7619 1 1 9.8768 0.457722 3.61098
7698 1 1 7.76066 17.2772 1.07658
700 1 1 11.2149 1.64938 2.13962
55 1 1 7.92524 0.0678918 1.91438
421 1 1 12.7762 0.268259 4.04727
726 1 1 11.8547 18.4467 4.09905
7040 1 1 14.906 16.0769 2.93823
2020 1 1 15.7774 18.4047 1.15776
437 1 1 13.3367 18.6037 0.15427
7547 1 1 16.5041 0.783349 0.720269
1964 1 1 18.032 1.08035 1.17079
398 1 1 18.731 0.615201 1.7347
1636 1 1 17.8384 2.85658 1.54601
1554 1 1 0.304384 17.9586 4.36048
2681 1 1 2.12763 2.96401 1.93616
1160 1 1 2.47573 1.57631 37.4917
7896 1 1 4.0545 1.96904 4.26492
767 1 1 5.09716 1.47589 4.38718
1327 1 1 4.035 0.563697 3.36445
7585 1 1 4.11206 2.73186 2.8928
7856 1 1 9.24485 17.5373 1.23522
1196 1 1 8.66162 0.620387 2.6908
2150 1 1 9.32298 1.73215 1.29328
1270 1 1 13.8743 1.23771 2.09513
224 1 1 10.7439 1.49482 2.98596
7938 1 1 12.0979 1.21155 2.70661
151 1 1 15.8988 1.0206 2.24645
1315 1 1 14.5918 1.11639 37.3244
1540 1 1 14.8645 1.75483 2.70727
7914 1 1 17.1009 1.56849 3.72597
155 1 1 0.604004 2.17486 2.05457
75 1 1 0.620057 3.94479 37.5564
412 1 1 2.26661 4.67061 1.90058
7754 1 1 3.49354 4.49146 3.17256
913 1 1 2.3879 5.69601 3.49081
7996 1 1 3.17728 3.31136 3.07008
5739 1 1 5.98958 5.40084 1.80474
7651 1 1 5.33273 6.48274 2.823
7661 1 1 3.65043 3.96968 1.3885
2046 1 1 5.39911 3.98427 3.89816
1373 1 1 5.9445 3.9835 1.87203
7280 1 1 4.08348 5.22799 0.951031
566 1 1 7.1941 5.20134 4.03982
7250 1 1 9.70867 2.36919 0.657179
209 1 1 8.25265 3.61183 3.30461
7725 1 1 7.71465 4.28966 1.19169
7821 1 1 10.5625 3.14361 1.07585
537 1 1 11.7493 4.06131 2.07214
2103 1 1 8.81498 4.23303 0.70967
515 1 1 11.9836 3.24579 37.4302
500 1 1 12.6122 4.09042 1.50771
1213 1 1 13.0772 1.72586 2.65931
1229 1 1 13.9605 2.43313 2.60522
432 1 1 17.3387 1.73852 1.98467
552 1 1 18.5796 2.98391 2.32492
2160 1 1 16.5321 3.00211 37.6117
7665 1 1 18.116 0.370896 37.2581
1316 1 1 1.23586 5.97401 2.34177
1319 1 1 2.89702 3.7908 4.65875
324 1 1 1.03601 3.68229 1.79851
7715 1 1 4.7901 3.0987 4.14914
2208 1 1 3.76774 5.36675 6.12304
1885 1 1 4.77074 5.82775 0.490469
1776 1 1 6.79683 4.67178 1.55777
454 1 1 6.60166 5.00226 3.00667
1051 1 1 7.43261 6.61154 2.51488
6986 1 1 7.28027 4.41065 0.223427
6617 1 1 10.63 2.17402 0.773724
231 1 1 11.2194 6.26328 3.09401
505 1 1 13.708 4.5109 0.733307
7827 1 1 13.3577 4.87361 1.99161
68 1 1 17.4525 2.34299 2.77197
554 1 1 18.3343 3.62042 0.917576
508 1 1 16.148 3.5714 1.23528
1717 1 1 1.11956 4.42505 6.0414
7841 1 1 2.8953 7.76162 1.83767
884 1 1 0.332499 5.62737 1.46662
7648 1 1 4.64979 5.60918 2.73093
1369 1 1 5.3679 6.771 0.0721827
7823 1 1 5.51849 4.73624 2.52023
1287 1 1 7.43019 7.08795 1.58899
7748 1 1 6.48673 5.29133 37.6029
1339 1 1 7.43364 4.92837 2.27142
6659 1 1 8.77637 5.95585 3.84185
228 1 1 9.07322 5.25223 1.26432
551 1 1 10.7801 7.01806 4.02333
636 1 1 13.7892 4.34634 3.9887
1983 1 1 14.0388 5.84526 4.03301
1473 1 1 17.239 5.81683 2.98254
387 1 1 15.3075 4.84847 3.87192
1377 1 1 14.6492 7.9414 3.07552
978 1 1 14.5228 8.75518 36.8014
119 1 1 17.7638 2.2637 3.84389
2432 1 1 14.9691 5.68578 1.98179
6875 1 1 18.0755 7.3714 2.33355
1396 1 1 18.7553 8.36195 3.73304
2110 1 1 2.30282 6.96503 2.50342
175 1 1 1.23756 9.01124 3.81657
98 1 1 2.16552 8.31469 2.72733
489 1 1 1.35187 7.50476 0.174126
541 1 1 4.97409 8.63773 3.47702
1766 1 1 3.24953 8.70999 2.50223
7944 1 1 5.25501 7.74493 2.64242
102 1 1 8.35719 8.59519 2.65907
615 1 1 8.55179 7.72274 1.09944
53 1 1 10.1056 8.63292 0.604643
7335 1 1 7.41335 8.93139 1.82736
582 1 1 9.93313 6.93229 2.72852
7904 1 1 12.1618 6.78884 3.59447
1422 1 1 12.502 8.24422 1.87274
638 1 1 14.1433 9.20219 0.0540343
498 1 1 12.8547 9.04572 1.05867
2154 1 1 16.5547 8.78659 2.07863
557 1 1 15.3662 7.96139 36.8146
1637 1 1 18.7413 9.25589 4.03233
757 1 1 1.83379 9.59294 1.77065
1003 1 1 1.65927 10.5142 2.12054
637 1 1 6.17491 10.8598 37.3691
571 1 1 5.09499 10.27 1.67032
7541 1 1 4.09899 11.0747 37.2219
653 1 1 8.98847 9.39012 0.488969
95 1 1 7.06239 8.97039 4.10105
7788 1 1 8.69504 11.983 0.24163
7334 1 1 9.33275 10.1459 2.99971
1532 1 1 8.93129 8.71489 1.39623
1826 1 1 11.9489 6.16069 4.38951
1072 1 1 10.5784 10.3226 2.06577
6997 1 1 14.3019 11.5654 0.638915
146 1 1 15.4962 10.2697 3.41539
1350 1 1 15.6631 9.58505 2.67999
200 1 1 17.9045 10.1483 3.37322
162 1 1 16.6277 10.3186 3.67285
444 1 1 18.1358 9.16533 1.5119
7897 1 1 1.88943 11.7809 0.077154
195 1 1 3.09728 10.9474 3.92457
1878 1 1 1.31073 10.8635 3.51347
6683 1 1 4.66491 11.5721 2.84712
300 1 1 0.211846 11.5977 2.35194
1005 1 1 2.27022 10.0213 2.93564
1529 1 1 3.27943 11.7569 1.03942
126 1 1 2.60841 11.9201 3.77577
1337 1 1 3.40643 10.3219 2.89522
1450 1 1 6.24611 9.23835 1.89467
1417 1 1 8.26444 11.1087 2.42427
304 1 1 8.24814 8.61242 37.061
1112 1 1 7.9644 9.94537 3.1538
532 1 1 6.65578 9.98945 1.21213
7822 1 1 10.3221 12.3167 5.4732
232 1 1 10.0078 9.65039 3.75712
6599 1 1 15.7501 11.5823 1.36298
683 1 1 15.4814 11.281 3.02091
1537 1 1 14.0615 11.7819 3.07369
669 1 1 16.2878 11.8214 2.33574
6719 1 1 15.8954 12.137 3.30315
7249 1 1 17.4951 11.8118 3.05045
1486 1 1 2.38971 11.1095 2.97573
125 1 1 3.08474 12.916 4.7435
1001 1 1 5.61766 8.68478 2.73572
1657 1 1 8.83598 9.39371 5.26726
530 1 1 6.07741 12.591 1.27407
7953 1 1 7.18587 10.5267 2.14667
7531 1 1 8.17168 12.7596 3.17663
1609 1 1 7.01708 8.46888 2.68771
381 1 1 10.617 11.1045 1.09418
1070 1 1 11.7047 10.159 2.365
1069 1 1 10.0019 10.8413 2.68322
7945 1 1 12.1901 12.1488 3.74649
1193 1 1 13.5209 11.3024 2.2076
240 1 1 15.2957 13.9947 5.96249
7834 1 1 13.8571 13.5937 0.211129
6563 1 1 1.04497 11.2661 1.52088
1282 1 1 0.485375 13.6385 1.49479
85 1 1 1.64968 11.7522 2.52707
1389 1 1 1.86359 14.4125 5.0343
590 1 1 2.99135 12.3484 2.18439
52 1 1 2.01519 12.7932 2.80567
1411 1 1 4.67844 13.5817 0.559598
331 1 1 5.03583 12.6793 1.05698
7701 1 1 6.78343 12.8459 3.418
7487 1 1 7.23602 13.5177 1.85671
6979 1 1 6.25576 14.3639 3.93289
2215 1 1 7.47839 13.622 3.31456
1545 1 1 8.51352 14.4942 3.17332
690 1 1 6.93217 11.7165 3.49027
277 1 1 8.67063 14.9797 1.15862
572 1 1 9.12001 13.205 2.9575
1187 1 1 13.6761 13.173 4.17669
678 1 1 12.6072 12.5859 4.67805
7452 1 1 12.3724 12.5183 0.473977
7951 1 1 13.6902 15.3659 4.04045
273 1 1 14.7715 13.2187 4.11933
990 1 1 16.2061 13.9859 3.51307
1042 1 1 15.0456 13.7944 2.28709
7888 1 1 0.851425 12.6162 1.77394
7515 1 1 0.911279 12.914 4.06416
435 1 1 17.8191 13.3324 4.61357
1078 1 1 1.15419 13.5673 2.41717
643 1 1 1.05784 17.1567 2.11841
1446 1 1 3.0941 14.8475 2.34411
350 1 1 3.81483 18.6457 2.32091
7503 1 1 5.82022 13.9263 1.72329
7123 1 1 6.88642 17.8518 2.33544
1211 1 1 5.86299 14.8556 0.632634
6 1 1 6.56856 14.0057 4.86345
687 1 1 9.05202 14.4373 2.27651
1139 1 1 11.9373 13.4767 3.26627
411 1 1 10.5707 16.1749 2.91123
1107 1 1 13.9907 15.5664 1.62171
6720 1 1 14.8454 15.1966 1.16143
259 1 1 16.0832 15.395 3.13266
7893 1 1 15.1652 14.1666 3.49625
285 1 1 16.0297 12.7623 1.02961
234 1 1 17.2371 14.4714 1.80285
693 1 1 18.2533 15.2456 1.6881
663 1 1 2.17438 14.252 4.08671
2367 1 1 18.4664 16.2118 2.15322
7968 1 1 1.54455 14.9427 1.73152
1086 1 1 0.198903 16.814 0.97048
899 1 1 3.9669 17.7301 4.63376
1895 1 1 3.72538 17.4725 1.69437
374 1 1 6.65453 12.5714 2.3088
7455 1 1 4.34046 15.7 0.254323
325 1 1 4.80162 17.2236 1.89843
1453 1 1 7.2464 16.75 1.93976
1226 1 1 10.3943 14.7108 3.08539
765 1 1 7.74594 14.3535 1.55266
1131 1 1 9.84124 17.6691 3.59738
1908 1 1 7.38482 15.5066 2.05943
1133 1 1 10.3828 17.7451 2.7251
6750 1 1 15.468 15.4938 1.90773
7838 1 1 15.203 17.0084 0.341763
375 1 1 14.8283 16.4723 1.96588
7777 1 1 17.8367 15.3759 3.86702
7993 1 1 17.5339 13.3813 1.65571
7903 1 1 0.328848 14.8922 1.2691
443 1 1 17.1063 15.1724 2.64236
163 1 1 18.2418 14.4399 2.23423
2037 1 1 0.333479 15.2399 2.30433
809 1 1 0.563496 17.3619 3.38428
1474 1 1 17.5425 16.3369 2.88613
847 1 1 0.770556 0.624518 2.19873
1713 1 1 1.69606 0.0439296 1.98089
310 1 1 2.51237 18.3232 2.56937
207 1 1 5.10241 18.08 0.922815
814 1 1 9.23833 18.5286 2.89726
740 1 1 10.1386 18.2252 0.541688
1047 1 1 8.95668 16.4915 1.67642
820 1 1 11.718 17.793 3.43606
708 1 1 14.5507 17.4483 2.04092
31 1 1 14.0821 15.5601 2.94367
7508 1 1 11.3222 18.1426 2.06119
1143 1 1 13.6273 17.5988 2.55074
328 1 1 17.7414 18.4389 2.11088
7044 1 1 16.2572 1.07545 4.07108
7844 1 1 16.4749 18.8177 4.45092
7992 1 1 0.237265 0.760648 5.24895
1200 1 1 18.7218 18.1365 2.09723
843 1 1 0.735049 18.8158 3.79773
2029 1 1 18.7505 0.950618 4.00082
800 1 1 1.56334 18.094 2.62296
1140 1 1 3.80238 18.4006 5.59608
37 1 1 5.66308 17.9527 1.8044
115 1 1 4.63497 18.248 2.82715
248 1 1 6.56018 18.7235 5.13499
43 1 1 6.52283 18.6819 1.74542
1461 1 1 5.38726 0.239189 3.29901
7616 1 1 8.52928 18.7635 4.17803
390 1 1 10.5279 18.7696 4.2973
7656 1 1 12.2038 1.31734 3.83658
7989 1 1 10.7358 1.54654 4.12142
7855 1 1 12.5313 1.46279 1.78686
1973 1 1 10.0757 1.03615 5.94769
32 1 1 13.4343 1.49035 3.67595
7 1 1 14.0407 0.390447 5.28314
7155 1 1 12.7849 3.19012 5.56511
7911 1 1 13.7502 18.6234 4.01105
948 1 1 14.7826 0.0234557 2.92092
157 1 1 16.6202 2.73536 4.75014
382 1 1 16.4927 0.209807 1.69233
7887 1 1 17.1671 17.8473 1.06319
33 1 1 17.3991 0.494582 1.78859
2347 1 1 17.7747 18.2422 4.28828
792 1 1 18.4363 2.95714 5.00057
1481 1 1 18.5028 1.21169 0.0479995
1576 1 1 18.1251 0.333532 4.68184
1591 1 1 17.1126 0.0693057 5.62873
480 1 1 3.162 18.6498 3.53341
7601 1 1 17.8642 1.14569 2.70037
1514 1 1 2.6026 1.18425 4.64487
96 1 1 3.51469 1.4557 3.20698
7848 1 1 2.60697 1.4901 3.6066
7678 1 1 6.28453 1.69849 4.44526
2136 1 1 5.9287 2.6323 3.98546
603 1 1 3.50165 1.68309 2.01147
611 1 1 5.07062 3.42242 2.99297
7700 1 1 7.01137 2.56307 4.00689
1932 1 1 5.75935 0.253731 4.43383
6673 1 1 9.06968 1.67777 3.40053
1206 1 1 6.87082 3.52139 1.57437
385 1 1 9.53441 2.83994 3.49178
1138 1 1 12.2318 18.3194 5.94242
149 1 1 13.2604 2.65137 4.57855
2109 1 1 10.7921 1.3222 5.25092
7776 1 1 11.523 3.71381 1.03534
2232 1 1 12.5453 3.62994 2.56958
147 1 1 12.1218 1.84469 5.74644
1223 1 1 15.6559 1.67619 4.81948
7478 1 1 14.8799 18.6775 1.71092
2038 1 1 15.511 0.228336 3.60629
780 1 1 15.7388 2.67264 2.95847
1602 1 1 18.5371 3.7331 3.31548
321 1 1 3.1976 2.1228 6.20851
1194 1 1 2.32126 3.92279 3.45218
6767 1 1 5.31395 3.41645 5.26564
528 1 1 7.6081 3.84783 2.17679
7524 1 1 6.23035 2.64206 5.26487
455 1 1 6.23721 3.89337 4.48263
1381 1 1 7.29738 1.49593 3.62819
887 1 1 7.56299 2.93293 2.72426
173 1 1 11.1337 5.68826 2.10859
616 1 1 12.2476 2.88258 4.58172
850 1 1 13.1982 3.71321 4.61296
651 1 1 13.6684 3.83544 2.27203
1269 1 1 15.4715 2.72458 1.53093
2099 1 1 16.5007 2.78158 3.60012
1472 1 1 13.5612 4.06917 5.68078
401 1 1 13.492 5.38158 3.11123
874 1 1 0.0579395 4.18815 1.84011
139 1 1 17.3969 4.38188 4.83289
924 1 1 18.5981 4.72705 3.86822
7638 1 1 16.8878 5.66537 6.22149
1158 1 1 0.688828 4.84731 2.16642
47 1 1 17.5862 4.45756 3.40868
1323 1 1 6.44089 6.78254 3.29843
450 1 1 3.24789 2.83749 4.15299
1280 1 1 4.79241 5.46121 5.8181
1774 1 1 4.86455 3.83906 6.35612
1850 1 1 5.84212 7.48403 1.12746
1375 1 1 7.24802 4.21229 4.92818
239 1 1 8.95081 3.89824 2.33167
1658 1 1 9.88047 2.75363 4.42167
7762 1 1 8.85613 2.73542 5.46576
7745 1 1 10.5018 2.50702 3.15513
898 1 1 11.324 4.86548 4.95923
180 1 1 12.328 5.07625 4.12631
446 1 1 12.1592 3.79086 3.83901
470 1 1 14.713 5.44143 5.79739
1863 1 1 13.8619 7.40566 2.48567
906 1 1 13.0347 4.45609 3.12734
1338 1 1 16.2639 4.98781 4.57955
1670 1 1 16.1661 5.62595 3.30289
954 1 1 16.9851 3.59296 3.13573
1443 1 1 2.64265 7.25653 3.96001
206 1 1 0.838257 6.81917 1.85792
7228 1 1 0.560004 6.93631 2.82474
45 1 1 1.44094 6.68492 3.80429
2357 1 1 18.2218 4.83194 2.59579
580 1 1 1.2576 4.17249 2.97513
1409 1 1 4.45884 6.75693 2.47277
82 1 1 3.79105 5.83006 1.7366
1376 1 1 5.71821 5.34373 3.38646
936 1 1 6.605 3.85464 3.45071
1296 1 1 8.40318 5.60415 4.96897
1045 1 1 9.53036 5.65695 2.53353
1378 1 1 8.95226 4.6636 4.90284
1344 1 1 10.0441 5.224 4.16676
575 1 1 11.3745 6.56195 5.08124
1039 1 1 12.3485 6.33822 5.25092
159 1 1 13.5341 7.46373 3.793
7712 1 1 14.9325 3.91091 5.00815
1709 1 1 16.1253 6.42112 4.11492
7397 1 1 17.3794 8.54232 3.75025
1265 1 1 17.0063 6.8422 2.71406
7432 1 1 16.8207 6.58312 1.61637
1231 1 1 17.2079 5.43843 4.10726
996 1 1 1.12128 7.7881 3.43198
1314 1 1 3.67177 7.98131 37.6183
848 1 1 3.02144 8.21006 3.37593
983 1 1 3.53747 7.31698 2.64012
1262 1 1 8.49548 5.49561 2.2978
925 1 1 4.85817 9.15998 4.41227
241 1 1 7.69805 7.74735 2.45699
1089 1 1 8.05807 6.71943 3.58987
568 1 1 6.19193 7.96373 2.37941
7659 1 1 7.47386 8.09229 4.53308
7743 1 1 9.73817 8.40708 2.87477
539 1 1 9.24819 6.98234 4.94482
462 1 1 8.53046 7.60732 4.31803
1478 1 1 11.5558 7.97735 3.70356
1925 1 1 13.1524 6.4699 4.48993
7428 1 1 11.7536 6.65984 2.32902
536 1 1 13.9153 8.4526 3.53788
956 1 1 15.7387 7.78904 2.81501
2594 1 1 15.1124 8.99173 3.53872
872 1 1 13.406 12.2552 1.40908
160 1 1 0.0845453 7.37513 3.67936
960 1 1 16.6416 10.1436 2.52496
7603 1 1 18.481 10.1744 4.54104
959 1 1 18.7091 8.24253 2.45438
7525 1 1 2.0704 10.8475 1.16307
1419 1 1 0.890044 9.83811 3.17509
441 1 1 3.00478 4.7238 5.16237
1427 1 1 4.07998 9.53386 3.06749
7482 1 1 4.6662 8.8235 2.49503
7322 1 1 4.24493 9.13575 1.08316
1163 1 1 5.38723 9.66399 3.23844
573 1 1 5.81338 9.3581 0.934464
685 1 1 6.77636 7.49291 5.50244
358 1 1 5.83412 8.97652 3.91109
177 1 1 7.4951 7.57628 3.56785
2065 1 1 9.06262 7.82116 2.37377
7096 1 1 8.44577 7.77772 3.36343
618 1 1 12.9717 10.3991 2.78144
1100 1 1 11.8769 10.5559 4.75339
276 1 1 13.511 9.50383 1.72297
108 1 1 13.9857 10.9554 3.81338
602 1 1 14.3969 8.23793 1.96253
1033 1 1 14.3908 9.04101 2.68897
271 1 1 15.4769 8.21823 1.73507
1798 1 1 16.0275 9.37585 3.83391
1631 1 1 16.0691 10.7005 1.81813
1439 1 1 0.534691 11.142 5.08447
1113 1 1 17.6044 8.89796 2.40101
639 1 1 18.7861 8.93328 4.97147
648 1 1 18.7208 10.8796 3.5826
7921 1 1 3.00201 9.34317 3.32795
201 1 1 3.34334 11.4163 2.68547
365 1 1 4.2221 10.4642 3.64288
647 1 1 4.1925 10.1753 2.22391
7791 1 1 5.1786 8.56315 1.54608
564 1 1 5.99845 10.2825 4.19631
357 1 1 6.70025 10.1113 6.19607
586 1 1 8.64299 10.1214 2.11296
1049 1 1 7.92347 9.39463 6.49257
492 1 1 7.93354 7.17342 5.196
2244 1 1 12.8157 11.5191 4.2242
253 1 1 10.8684 9.13161 3.42887
1825 1 1 10.5518 10.4609 3.50189
1074 1 1 15.1988 9.43782 4.43674
1942 1 1 14.7683 9.23849 0.770925
235 1 1 16.5164 11.2769 3.46988
1676 1 1 13.9311 12.0301 4.36141
7480 1 1 17.0087 10.0278 4.6448
967 1 1 1.6594 12.0624 3.68417
1115 1 1 1.19552 11.3022 5.9112
7403 1 1 3.93511 12.188 3.62926
684 1 1 4.4538 10.8452 6.10049
2755 1 1 2.05191 15.481 2.55262
627 1 1 5.98903 11.0475 3.34671
1820 1 1 6.2367 10.4512 2.48974
342 1 1 6.42171 9.39106 3.00327
290 1 1 7.84021 13.2486 4.30155
526 1 1 10.5709 10.2262 4.87779
315 1 1 6.71472 8.70376 6.10006
1175 1 1 7.44161 13.3079 5.22551
2017 1 1 11.8194 10.5933 3.444
1833 1 1 10.2204 8.19138 4.4213
1542 1 1 8.77132 12.2528 1.67338
1103 1 1 12.4628 11.2545 5.41508
878 1 1 14.3015 10.7766 4.88947
600 1 1 12.2705 9.24136 4.42787
1046 1 1 12.9197 10.3169 3.84426
1151 1 1 13.4923 10.5081 6.00601
265 1 1 17.7343 13.623 2.87793
877 1 1 0.668851 12.3827 3.08065
1077 1 1 1.77815 13.2369 4.98147
7835 1 1 3.67305 10.6929 4.86031
6379 1 1 5.54273 12.6374 2.09883
2012 1 1 6.45097 11.9222 4.80297
1010 1 1 4.31032 12.1518 1.7964
2122 1 1 5.81391 14.7602 5.26113
1504 1 1 4.03559 14.3324 4.86268
1301 1 1 5.40169 11.2098 4.67842
813 1 1 4.91646 14.3201 1.20096
1512 1 1 9.07661 11.9907 2.69511
2062 1 1 10.4026 12.793 1.00432
64 1 1 10.1708 13.1181 2.41265
823 1 1 9.6494 12.5148 4.29793
379 1 1 11.363 11.8535 1.09278
1432 1 1 12.661 13.1713 6.7442
968 1 1 12.4143 10.4692 6.5647
1445 1 1 18.5812 12.1312 5.13543
2329 1 1 17.8555 12.4714 5.90728
7870 1 1 0.595076 14.4201 4.78334
688 1 1 0.0768527 13.5017 4.29362
724 1 1 18.3589 14.7466 3.15796
1638 1 1 4.05124 15.0135 2.80149
853 1 1 1.12711 16.4248 2.76261
1082 1 1 3.89912 16.4261 3.80521
1136 1 1 3.84478 14.1624 1.5733
7613 1 1 6.68401 14.8065 1.71799
2824 1 1 8.22393 15.5232 3.33451
825 1 1 8.47902 11.2088 3.80985
468 1 1 8.47359 14.2353 4.38168
1130 1 1 8.82521 13.2877 4.19203
7704 1 1 11.7084 14.4568 1.98058
991 1 1 14.003 11.7322 5.50164
1912 1 1 9.82627 14.6344 3.9393
982 1 1 14.8534 16.3449 5.04834
7147 1 1 13.8594 14.265 4.20924
629 1 1 17.69 14.158 3.70058
670 1 1 16.7295 13.6638 2.33074
1120 1 1 16.8632 13.0373 3.35479
1928 1 1 17.9232 13.7346 0.744885
1406 1 1 16.9685 17.7679 5.0867
1087 1 1 0.384872 15.833 3.60899
816 1 1 3.25557 16.0798 4.51438
2837 1 1 2.02426 16.2734 3.64927
370 1 1 5.6352 13.4624 5.83403
1729 1 1 6.55693 15.5098 2.65308
937 1 1 7.97162 18.0561 2.29065
734 1 1 6.54205 15.2112 4.58028
7627 1 1 9.5668 16.6714 3.96336
1094 1 1 7.02408 17.0279 5.28394
1583 1 1 12.3149 17.5151 4.79372
7550 1 1 10.4573 13.2016 3.5247
423 1 1 12.9241 15.938 3.89212
317 1 1 12.2398 14.7936 4.11371
7146 1 1 12.3589 15.1243 3.06847
465 1 1 15.6978 15.2513 4.43956
769 1 1 16.1507 14.5715 2.31546
20 1 1 16.8601 16.0678 3.81546
822 1 1 16.4695 17.7259 2.77803
1272 1 1 16.9471 14.4306 4.51249
283 1 1 17.4846 18.3862 3.09783
1149 1 1 18.2913 16.0469 4.50612
1247 1 1 17.2481 17.1278 4.26743
1234 1 1 17.8811 17.2069 5.40307
6674 1 1 1.32342 15.8388 5.13114
888 1 1 4.70069 18.5549 3.95832
1650 1 1 3.33373 17.3675 5.31122
7562 1 1 7.35353 16.6877 2.98156
7210 1 1 5.12052 14.9217 2.32815
727 1 1 2.74296 0.593849 2.75832
293 1 1 6.95858 18.6428 3.92211
363 1 1 5.37773 15.3786 1.30987
841 1 1 8.62502 17.6865 3.34889
171 1 1 7.61155 0.594952 2.80765
496 1 1 8.82755 2.6835 2.7984
504 1 1 7.72126 17.2915 4.03401
7150 1 1 11.1787 18.7564 5.40423
838 1 1 13.4275 16.5372 4.56524
2026 1 1 8.78609 17.3657 2.38135
6832 1 1 12.9234 16.8723 3.36518
427 1 1 15.6196 17.9557 3.31149
7551 1 1 16.8095 0.376217 3.37139
869 1 1 17.2502 0.898206 4.8347
1590 1 1 17.8899 0.122204 0.822321
3143 1 1 16.4017 0.90884 5.91365
794 1 1 18.0877 18.3649 7.90553
7883 1 1 0.639386 2.38146 5.67439
1526 1 1 18.3115 17.8553 3.49457
1448 1 1 4.61158 18.5916 6.37028
728 1 1 2.1543 0.392756 4.13687
778 1 1 5.91437 1.4113 5.40428
452 1 1 5.64838 18.1274 6.18654
1122 1 1 5.46452 1.00154 6.44633
860 1 1 5.45077 17.4935 3.86214
1333 1 1 8.21655 1.59605 4.32195
971 1 1 6.22954 17.7494 4.60511
1582 1 1 8.34593 1.12912 5.1285
38 1 1 6.56927 0.795884 4.02696
829 1 1 8.96001 18.3469 5.4707
605 1 1 7.4334 0.70522 4.74815
671 1 1 11.4294 0.788652 4.49116
1345 1 1 14.1872 2.03476 6.54121
655 1 1 15.0915 17.7018 6.56173
1986 1 1 13.9852 16.9918 6.72316
409 1 1 16.0588 2.43517 5.64664
1152 1 1 15.4526 1.43339 6.16333
1240 1 1 16.9327 17.4285 6.48611
312 1 1 17.0829 1.67285 7.16232
1954 1 1 0.105951 0.197129 7.39972
2365 1 1 0.796183 3.66754 3.65716
109 1 1 1.40877 1.17365 2.95535
1171 1 1 1.8557 1.6447 5.20397
763 1 1 4.19705 0.474724 4.97299
130 1 1 3.48597 1.60604 5.08221
104 1 1 5.25965 2.1818 5.15097
1675 1 1 4.72171 1.22217 5.51455
1328 1 1 3.25238 0.453681 4.32391
376 1 1 6.66788 1.66946 2.89426
1216 1 1 5.04242 1.04311 7.724
7997 1 1 8.31292 2.85959 4.4982
1336 1 1 9.96775 1.1776 2.07335
946 1 1 14.5068 2.15128 3.78481
71 1 1 10.4637 1.69298 6.47942
947 1 1 8.87145 1.77258 5.78037
511 1 1 11.2623 3.2312 6.44663
2867 1 1 12.2567 2.82289 6.26993
1037 1 1 14.2634 0.697481 4.33752
2323 1 1 15.0176 2.6701 4.62479
2392 1 1 16.0118 3.83782 5.12815
1205 1 1 18.5712 1.92508 4.60896
1594 1 1 0.0674498 18.3634 5.4364
867 1 1 18.7926 2.59283 3.72011
7607 1 1 2.2256 4.30511 5.52773
1129 1 1 2.29843 2.56954 5.60833
491 1 1 4.49394 5.07125 6.9964
1245 1 1 4.63832 1.63773 6.57929
520 1 1 6.62561 4.85693 5.83233
885 1 1 7.31052 2.80628 4.9576
1331 1 1 7.60552 3.70245 4.22966
1308 1 1 9.39227 4.07806 3.2586
588 1 1 8.23891 3.63706 5.24296
862 1 1 11.1874 2.74268 5.39149
576 1 1 11.6183 3.73091 5.09254
2075 1 1 13.4764 2.82702 6.20917
842 1 1 12.8719 6.43897 6.80268
514 1 1 13.5938 5.15757 5.6595
1458 1 1 15.378 3.57792 5.94279
2471 1 1 15.8652 3.49376 4.10717
859 1 1 14.2306 3.0149 5.19803
745 1 1 17.0258 4.92577 2.60674
756 1 1 18.147 5.67062 5.59303
799 1 1 2.21454 2.61019 3.37876
752 1 1 18.1716 5.98777 3.44708
1738 1 1 18.7875 6.41686 5.45809
2285 1 1 3.44711 3.26076 5.88653
729 1 1 1.56369 3.46181 4.83813
915 1 1 2.3691 2.60002 4.451
2054 1 1 4.60554 2.79544 5.83781
2602 1 1 5.8854 3.68744 6.27812
1098 1 1 7.71526 5.41604 5.88266
904 1 1 5.84575 5.52002 5.2419
1255 1 1 7.48688 4.07135 6.1098
1416 1 1 9.15315 5.02893 3.35983
555 1 1 12.2914 4.69501 5.33693
469 1 1 10.466 6.08502 4.62805
140 1 1 11.1435 5.60423 3.9661
1413 1 1 15.484 4.90132 5.45967
426 1 1 12.9445 4.55488 6.52724
1992 1 1 12.4996 2.38304 3.34072
1672 1 1 15.9923 6.23475 5.14804
1728 1 1 16.5987 7.45604 3.44534
1202 1 1 2.07319 5.48369 4.48673
525 1 1 15.0217 3.76191 3.29009
65 1 1 0.121958 4.44748 6.08259
7931 1 1 1.92778 7.86109 4.4744
1241 1 1 1.67038 6.2846 6.26554