ITEM: TIMESTEP
3900
ITEM: NUMBER OF ATOMS
8000
ITEM: BOX BOUNDS pp pp pp
0.0000000000000000e+00 1.8820720577620570e+01
0.0000000000000000e+00 1.8820720577620570e+01
0.0000000000000000e+00 3.7641441155241139e+01
ITEM: ATOMS id mass type x y z
7930 1 1 16.992 1.05335 2.09978
148 1 1 18.3769 3.19553 2.78333
445 1 1 3.28173 1.72959 1.83208
7604 1 1 1.61429 1.99777 0.995409
194 1 1 0.145687 0.954844 36.7532
350 1 1 7.32232 1.09298 36.4083
249 1 1 4.63459 1.75245 37.1305
7964 1 1 5.83796 1.53953 37.2608
1206 1 1 8.21446 1.6239 36.7279
487 1 1 4.51851 0.704644 3.24924
7416 1 1 6.93055 3.07833 35.4774
6017 1 1 9.34271 0.210024 0.486637
7680 1 1 7.9106 18.6269 33.598
1196 1 1 6.81785 1.45387 35.4719
343 1 1 12.9271 18.1236 37.6026
7994 1 1 10.2963 0.451877 1.10536
6399 1 1 14.8555 15.6783 0.846809
7547 1 1 16.7654 18.201 37.1034
383 1 1 16.4049 1.02039 3.22962
432 1 1 15.7394 17.9369 36.3363
7265 1 1 0.695944 18.7069 0.930181
1964 1 1 16.2496 17.3119 37.46
420 1 1 15.9466 0.573835 0.287909
18 1 1 17.9421 3.35479 1.73094
7690 1 1 0.955259 3.09616 1.04886
402 1 1 2.79699 2.01842 0.516345
399 1 1 3.05571 0.773486 2.1639
7919 1 1 8.51999 2.93228 1.58833
6851 1 1 7.84828 1.37816 1.86794
7267 1 1 6.17003 0.544873 37.3669
886 1 1 9.42833 3.52908 1.94982
527 1 1 5.47563 4.00905 1.65151
529 1 1 10.0121 3.01493 1.14068
6703 1 1 9.3905 1.69249 0.994158
7287 1 1 12.6336 2.01917 2.99436
356 1 1 14.6315 1.4148 36.1362
6617 1 1 9.76225 16.773 35.9314
1269 1 1 14.6691 0.271953 0.259319
1110 1 1 16.105 18.2002 0.310098
508 1 1 18.2496 2.82765 37.4816
73 1 1 15.0973 5.29348 0.104961
7972 1 1 17.4126 5.07137 37.5022
75 1 1 17.6094 4.25256 0.854468
6152 1 1 3.05865 4.91369 0.810976
219 1 1 0.723523 4.96465 0.289504
7236 1 1 1.87702 1.81501 0.106201
7661 1 1 4.37138 5.12469 4.28373
7284 1 1 4.64137 2.27786 2.04863
5739 1 1 7.96541 4.64933 2.92031
7261 1 1 0.583996 2.53773 2.06429
3 1 1 5.81282 2.53404 0.363088
7251 1 1 4.50551 3.95218 1.44707
7300 1 1 7.27566 3.54704 1.72836
7660 1 1 7.24 1.8834 0.213677
7725 1 1 7.44999 2.38475 2.00795
6986 1 1 6.66907 2.40752 2.86774
1208 1 1 9.3589 2.07767 36.9884
2103 1 1 9.3165 6.62351 1.57759
6657 1 1 9.1978 4.63737 0.186455
7783 1 1 8.77509 0.226268 35.9976
7250 1 1 12.0186 3.88722 2.91901
6463 1 1 13.4304 5.92289 4.57282
505 1 1 10.6327 1.72743 1.78671
1380 1 1 11.8571 3.21065 0.374058
787 1 1 15.2921 1.28622 37.3245
500 1 1 13.0131 4.53545 37.1864
39 1 1 16.0966 2.48018 37.4684
7246 1 1 13.3824 3.93295 1.76833
2160 1 1 16.8698 4.06706 2.65488
7950 1 1 18.5776 4.23806 2.51771
6823 1 1 18.3251 3.23312 35.866
554 1 1 17.2521 3.13167 36.6374
34 1 1 18.3709 6.66005 2.70177
479 1 1 4.0447 4.29248 2.6931
1885 1 1 4.01906 4.99883 0.44296
406 1 1 2.02087 5.15268 2.14901
1369 1 1 8.67639 4.38133 1.16885
7663 1 1 6.00688 5.4311 0.289029
497 1 1 7.00372 4.01215 37.3673
542 1 1 7.34089 6.82079 36.1862
228 1 1 8.14162 3.05224 36.9938
7010 1 1 10.3822 4.03659 1.83299
7611 1 1 10.6813 6.09351 1.58989
7422 1 1 9.61944 8.0547 2.71234
7468 1 1 14.0427 5.77246 1.79149
1109 1 1 13.3351 4.86136 0.648669
461 1 1 13.2919 7.35995 0.837702
7444 1 1 15.8252 6.95418 2.40599
1718 1 1 0.470157 3.65612 3.43851
206 1 1 1.62494 6.56681 2.41505
323 1 1 7.59519 4.17755 0.86775
82 1 1 5.54678 7.07286 0.0512271
835 1 1 4.07662 6.26213 2.61144
7803 1 1 6.9353 7.46979 0.945485
623 1 1 8.46965 7.22854 2.24175
796 1 1 7.56866 5.29465 0.0639483
7002 1 1 9.8736 7.933 0.974378
585 1 1 7.72539 6.66825 1.78453
7826 1 1 11.8699 9.52245 1.85965
7935 1 1 11.7809 7.52256 5.44738
6828 1 1 14.5971 4.64646 1.1808
7937 1 1 13.295 6.70681 1.89897
308 1 1 17.018 6.5667 4.56379
7758 1 1 14.8679 6.79013 1.57347
7432 1 1 15.5024 4.43889 0.527951
431 1 1 17.3271 6.55664 2.60778
6443 1 1 18.5285 5.39698 5.02634
118 1 1 17.9578 8.61042 36.3687
884 1 1 0.306974 7.63435 37.1093
1751 1 1 0.986916 6.65702 37.5676
7841 1 1 1.22847 7.49099 0.552918
15 1 1 5.90851 6.12855 2.01482
1314 1 1 1.91459 8.54063 1.57977
7879 1 1 6.86455 5.79865 1.72571
475 1 1 5.98037 6.44448 37.0637
7643 1 1 8.1485 8.50602 0.424204
7420 1 1 10.1871 7.10052 37.5508
7625 1 1 12.4319 5.78214 3.04992
53 1 1 9.63705 9.46853 1.06678
304 1 1 8.86365 7.73255 34.1541
697 1 1 8.52084 8.45395 2.30141
188 1 1 12.0795 8.29057 2.30435
193 1 1 13.7354 7.90673 2.53697
557 1 1 10.9938 7.24913 3.66323
1942 1 1 17.914 8.16807 3.89689
205 1 1 15.8366 6.52586 0.29395
7845 1 1 0.504995 9.99251 2.73518
7641 1 1 14.2569 6.6201 0.700161
7795 1 1 0.490622 8.96629 0.885172
444 1 1 0.130999 7.92988 0.854743
1547 1 1 2.37902 9.59341 0.0738983
997 1 1 2.75 8.74346 0.808038
7322 1 1 5.75936 7.47617 1.23819
573 1 1 5.69952 11.3011 35.819
532 1 1 5.75334 8.39106 1.99299
1850 1 1 6.7712 8.54845 1.19929
615 1 1 10.1084 8.70556 1.87009
691 1 1 8.1232 10.9439 0.598157
7654 1 1 11.4625 8.38923 3.93417
6136 1 1 9.22559 8.47097 0.424662
7461 1 1 10.6842 9.0757 3.17236
498 1 1 14.465 7.80765 1.51723
638 1 1 12.9576 9.78594 2.43436
519 1 1 14.5329 8.60026 2.67147
223 1 1 15.332 8.71331 2.07949
538 1 1 18.4938 8.95017 0.244589
165 1 1 17.3222 7.53673 35.0359
190 1 1 18.3263 7.26702 1.3822
7867 1 1 16.7626 12.8253 1.61555
7897 1 1 4.08264 11.6698 1.03784
138 1 1 4.32406 9.2388 0.794429
647 1 1 3.28121 12.5957 2.32352
7967 1 1 3.49067 9.45703 1.94866
1048 1 1 6.5719 11.5994 36.8742
773 1 1 7.9218 11.1639 36.679
1820 1 1 7.78748 10.0981 36.4112
534 1 1 8.88219 11.1004 37.0084
973 1 1 14.7054 12.4493 1.03237
699 1 1 9.283 11.1576 1.8756
7891 1 1 9.49556 10.3357 0.346588
250 1 1 11.2866 10.6579 37.2145
7452 1 1 14.2022 11.6511 37.3719
6669 1 1 11.3828 9.68746 37.261
1000 1 1 16.9372 7.69522 2.12774
6599 1 1 14.5884 12.0192 2.58121
2234 1 1 16.2794 6.37313 36.8088
1040 1 1 16.8652 10.4726 36.5648
7991 1 1 15.7984 11.8093 36.0261
962 1 1 1.93363 13.0143 35.8226
1529 1 1 1.77953 14.9357 1.5813
6604 1 1 1.14633 11.1414 36.5908
203 1 1 4.06769 14.4765 1.00475
215 1 1 3.11357 13.4386 0.662602
7376 1 1 5.10142 12.2466 1.47469
331 1 1 5.35938 9.2852 1.18721
1010 1 1 4.67179 11.7847 37.6003
530 1 1 5.93325 10.0278 0.422684
7402 1 1 5.38645 12.0605 36.6736
7864 1 1 9.52438 10.895 35.7649
344 1 1 6.85369 9.6764 3.2645
993 1 1 8.6929 12.4293 1.11095
381 1 1 12.8608 12.7407 4.04987
2062 1 1 12.3914 12.2816 3.31785
660 1 1 8.87416 14.7108 0.532617
261 1 1 12.4968 11.9193 37.3158
6997 1 1 15.0243 10.0162 1.86496
6705 1 1 16.2158 9.90335 0.898138
230 1 1 15.5921 8.33783 1.17934
7348 1 1 14.777 9.06672 37.4706
7022 1 1 16.3396 11.4293 37.6077
7470 1 1 17.7529 12.688 37.3286
7479 1 1 17.6234 11.149 35.0019
7888 1 1 17.7363 14.2661 0.873424
78 1 1 18.5992 14.5492 35.2091
6578 1 1 3.02405 11.9824 1.00642
1282 1 1 2.3714 14.2926 0.624433
85 1 1 2.73091 13.6261 2.50189
2755 1 1 2.2602 13.2784 37.4259
340 1 1 2.40439 11.6024 36.7557
1136 1 1 2.87227 15.8992 34.7123
1411 1 1 4.78254 14.9077 36.0389
6411 1 1 3.26168 14.912 0.425008
7487 1 1 5.46402 14.6384 3.2259
765 1 1 8.50899 12.2603 0.0552565
7464 1 1 8.46093 13.7219 2.29149
7545 1 1 10.2931 12.6083 1.98533
1178 1 1 8.15381 15.3949 1.49216
307 1 1 12.3586 13.6967 0.0239957
7834 1 1 12.7964 14.4417 1.09594
769 1 1 16.2828 11.8453 1.44731
237 1 1 15.2351 14.572 37.4036
234 1 1 15.8607 11.4292 2.27675
163 1 1 18.2394 14.9092 1.96837
7934 1 1 2.67462 16.3514 36.4067
7840 1 1 3.28753 14.8456 2.70199
7755 1 1 3.08848 13.5236 36.257
813 1 1 5.34178 14.5631 0.348143
1729 1 1 5.83282 15.7413 0.841171
363 1 1 1.61519 15.5852 35.5139
7139 1 1 4.60641 13.6168 0.792715
7610 1 1 8.03264 13.7613 37.0735
1573 1 1 6.0343 15.5181 37.3964
7543 1 1 6.88368 16.2405 1.23103
749 1 1 8.83171 15.8321 0.643241
1170 1 1 11.2227 15.0124 1.53242
7075 1 1 13.6738 13.01 1.36327
6822 1 1 10.4635 16.8424 0.575876
7634 1 1 12.8766 16.2075 0.0298745
1042 1 1 14.9422 15.8933 2.72017
6720 1 1 17.5317 14.2253 2.284
7903 1 1 18.5827 17.6323 0.885263
7968 1 1 1.31949 17.9055 1.51433
6919 1 1 1.09854 17.3675 36.7464
7180 1 1 5.30446 16.7147 0.977434
7581 1 1 3.84553 18.5692 1.06936
419 1 1 8.62869 16.9348 0.290259
7210 1 1 3.32737 18.7248 0.138817
7963 1 1 5.96435 16.0215 35.3767
1485 1 1 4.5942 16.0593 2.8894
428 1 1 7.32198 16.7536 37.0478
287 1 1 7.04558 17.0625 0.62295
8 1 1 6.59913 13.2112 0.304956
338 1 1 7.42853 16.1407 0.384004
377 1 1 10.6992 15.1317 0.0625687
7856 1 1 6.60748 16.1144 4.07816
7778 1 1 11.0383 17.7189 37.1133
6535 1 1 14.5663 15.1874 2.13046
7898 1 1 12.4935 15.7273 36.578
7341 1 1 11.5293 15.5209 37.1771
7913 1 1 14.3224 14.8819 0.350979
22 1 1 13.5191 15.1661 2.09816
7787 1 1 17.1913 16.449 1.18284
5999 1 1 0.732995 16.9737 1.04842
7390 1 1 16.1071 17.2704 1.1244
2134 1 1 1.43135 0.661764 0.312542
314 1 1 18.3236 18.0342 37.5549
1146 1 1 2.0978 15.7265 2.1317
7081 1 1 2.31312 17.2006 37.0371
1327 1 1 2.91115 0.390325 1.14237
1895 1 1 4.5686 17.4467 0.77036
7212 1 1 2.09723 18.1939 36.974
397 1 1 2.40343 0.2778 3.55883
37 1 1 6.07157 16.9502 36.477
1257 1 1 3.45754 17.4861 1.22843
456 1 1 6.38498 18.2896 37.4864
391 1 1 6.69001 16.7981 3.36281
7698 1 1 7.69147 17.2044 2.58333
141 1 1 8.21797 16.0438 2.36856
7975 1 1 8.43139 14.8427 35.2119
700 1 1 9.90158 18.7316 2.30122
820 1 1 13.2711 14.8568 37.6029
2661 1 1 13.6188 17.2744 0.34141
437 1 1 12.4585 0.816117 37.5771
2020 1 1 12.722 18.5792 2.80739
7224 1 1 13.7059 16.7009 35.2326
7838 1 1 15.4579 17.3694 35.406
7887 1 1 1.57759 18.2244 2.49295
785 1 1 18.4863 18.6836 3.27385
847 1 1 1.34472 0.962023 2.15639
1713 1 1 0.153989 3.35118 0.350599
7122 1 1 18.0412 4.10751 3.55924
310 1 1 1.66924 0.956646 3.5043
727 1 1 2.97393 1.98411 3.58447
834 1 1 4.58757 18.4378 2.84991
105 1 1 4.28792 1.37087 4.36035
96 1 1 7.81842 0.74663 3.81612
1328 1 1 4.91958 17.4747 2.01393
7535 1 1 7.28313 18.5152 4.18945
55 1 1 8.2945 0.398388 0.973114
1381 1 1 7.46189 0.324492 37.6178
2150 1 1 13.447 17.3619 2.24919
1336 1 1 14.2513 3.85638 2.70328
1213 1 1 12.2218 3.22868 1.68808
7478 1 1 12.0433 1.19421 2.76277
2153 1 1 16.2638 1.85001 6.22191
382 1 1 14.0498 1.26059 1.02786
7844 1 1 14.3458 1.85911 2.59698
7293 1 1 16.7408 0.585058 1.22438
7647 1 1 2.3405 0.108278 2.39096
398 1 1 17.3878 2.0936 36.0455
1451 1 1 1.93429 18.4852 6.462
1239 1 1 2.1491 2.89439 0.409093
2681 1 1 1.33823 2.44214 4.9592
603 1 1 2.69055 0.370998 6.17119
62 1 1 2.78607 4.18616 3.9911
7585 1 1 5.1297 1.71391 0.841905
94 1 1 8.79213 0.571317 3.11859
1168 1 1 6.19779 1.53124 0.721379
376 1 1 8.1902 3.6462 0.244133
528 1 1 10.2593 1.8521 3.19951
496 1 1 9.36327 18.4463 1.25898
824 1 1 9.22128 2.04401 4.78829
1333 1 1 10.2104 1.90048 37.5006
464 1 1 9.78901 4.9448 1.99202
7855 1 1 13.2917 16.5391 2.93021
6956 1 1 17.9156 0.889419 37.0099
1634 1 1 16.9244 2.25979 2.79765
1540 1 1 16.1859 1.51209 1.16839
430 1 1 1.54014 0.907022 4.84779
151 1 1 17.5137 2.63604 4.71876
155 1 1 0.71306 5.00582 5.29492
7366 1 1 1.94808 4.70777 1.11256
412 1 1 1.93911 3.26748 4.56904
324 1 1 2.08843 0.644261 37.1124
2365 1 1 4.79279 3.93602 3.66658
547 1 1 2.95325 3.02299 4.51806
6648 1 1 0.249634 3.67834 1.87453
7532 1 1 5.5286 2.74796 1.78115
1373 1 1 1.6604 1.92421 3.01451
1339 1 1 6.8365 1.85079 3.84801
239 1 1 9.09723 1.42257 3.95197
1308 1 1 10.7588 2.40931 4.05981
587 1 1 9.08723 2.07597 6.18927
7821 1 1 12.2984 0.0376965 0.706573
1076 1 1 9.78888 4.94139 3.89921
2232 1 1 12.1036 4.14484 1.34381
537 1 1 15.3876 3.63103 3.16114
446 1 1 13.4959 3.86372 0.706563
1020 1 1 16.4189 0.161236 4.68811
7776 1 1 14.6049 4.77508 3.12023
591 1 1 15.3594 3.59299 4.52537
780 1 1 15.0265 2.42826 4.50821
651 1 1 17.3466 5.23024 3.56562
7440 1 1 16.8367 2.44824 1.69588
1636 1 1 17.2077 2.14367 37.1019
68 1 1 0.752412 4.56847 1.28983
47 1 1 0.0693651 1.10049 1.46011
580 1 1 2.22219 5.00901 3.98115
440 1 1 5.98873 5.90511 3.76495
6995 1 1 2.16905 2.78444 1.91291
7280 1 1 0.245755 6.3483 36.8361
7413 1 1 6.34775 1.39679 36.4397
7823 1 1 7.08179 5.7716 3.79997
1379 1 1 8.61581 5.23311 2.0159
6659 1 1 8.02296 4.06266 2.13297
1045 1 1 10.6268 5.15233 0.809387
91 1 1 11.6504 5.21825 2.84553
173 1 1 11.1684 3.39242 4.04338
581 1 1 13.1321 3.83934 3.48724
1377 1 1 12.8921 5.32977 3.98277
1670 1 1 14.494 2.99808 2.06656
958 1 1 13.5561 4.96056 2.80772
874 1 1 16.7389 3.00759 3.40265
924 1 1 1.24665 5.47448 1.2215
1158 1 1 2.42554 5.93851 2.72805
966 1 1 0.96451 4.3262 2.62598
983 1 1 3.78788 6.25819 3.88545
7028 1 1 3.54609 5.11397 5.05723
7944 1 1 3.68806 6.21131 0.552927
568 1 1 5.0024 4.81354 0.919355
488 1 1 8.23063 5.77106 2.90856
1287 1 1 3.22789 5.5274 1.8137
1051 1 1 8.30707 6.8031 3.32566
1330 1 1 10.4862 7.36391 1.71219
231 1 1 12.1022 9.15263 3.36508
1262 1 1 10.8454 7.70235 2.66278
107 1 1 14.4299 6.72951 37.3045
934 1 1 13.2595 5.90387 2.54542
7756 1 1 11.885 8.28746 6.06837
1478 1 1 14.5364 7.90868 4.27469
6316 1 1 13.8106 6.98965 3.01862
2432 1 1 15.217 6.10026 2.43407
1265 1 1 0.649956 5.40411 2.58176
956 1 1 16.1153 3.87252 36.3382
81 1 1 1.98053 4.3762 5.17708
560 1 1 17.6443 8.11248 6.88636
928 1 1 2.39905 7.28541 3.52314
959 1 1 0.147501 7.80703 3.09866
2110 1 1 0.469474 6.7979 2.29862
98 1 1 1.41108 5.83262 3.30383
1766 1 1 2.62707 6.90846 1.60709
1409 1 1 5.13977 5.48731 2.57349
7921 1 1 6.65866 6.72774 2.11521
541 1 1 6.64623 8.85514 2.24466
153 1 1 9.19492 8.15911 3.87468
1001 1 1 7.69457 9.27159 3.82234
241 1 1 11.1254 9.5521 4.4957
6627 1 1 9.55236 6.14434 4.3201
281 1 1 13.2394 6.85958 5.21886
1044 1 1 13.0071 4.11293 5.66422
1863 1 1 17.2991 8.59505 2.95415
7428 1 1 13.3992 8.02335 4.77265
944 1 1 13.0894 8.50102 3.47381
2197 1 1 13.7028 6.93315 4.15876
144 1 1 18.3336 6.27708 3.74282
536 1 1 17.9018 9.5655 1.32623
271 1 1 15.2441 7.84712 2.62127
1441 1 1 15.8944 7.465 3.8393
1473 1 1 14.6634 5.15116 2.19135
6875 1 1 18.1893 8.3656 2.39888
238 1 1 0.239918 9.52566 4.54527
7308 1 1 16.5944 7.12891 5.28073
1318 1 1 0.64529 7.94285 1.91446
200 1 1 2.05347 10.8042 1.15431
1113 1 1 1.70897 7.51259 1.96133
478 1 1 4.29236 10.5319 4.02718
404 1 1 3.7274 10.4002 4.99888
114 1 1 3.44695 7.66412 3.16832
158 1 1 5.60826 7.41908 2.22365
222 1 1 3.12912 9.96158 0.766709
7482 1 1 4.25182 11.1543 1.89215
7791 1 1 6.13723 9.04616 3.73111
1450 1 1 7.19875 9.46281 0.393228
7335 1 1 8.48797 9.52727 0.85389
1532 1 1 8.11414 8.06569 5.94626
1906 1 1 10.9039 11.7413 0.904196
2065 1 1 8.02033 9.21225 1.8034
586 1 1 9.38269 15.7694 1.91944
7538 1 1 11.4378 11.8905 2.25139
1790 1 1 10.8523 7.92425 0.549337
7829 1 1 11.5929 10.8694 5.43715
6864 1 1 10.6143 12.8664 0.595692
610 1 1 12.3194 11.2811 2.62221
1070 1 1 13.0498 6.4357 3.46774
618 1 1 12.8558 9.31167 4.03579
602 1 1 15.5655 6.38384 3.57741
1068 1 1 16.3073 9.43333 36.8182
1033 1 1 16.5492 11.085 35.5959
84 1 1 0.449402 11.2861 0.553909
2154 1 1 17.405 11.569 37.1839
1360 1 1 0.144896 12.9807 36.9415
1003 1 1 4.39888 9.63518 2.85532
6563 1 1 2.46728 12.6045 4.07016
757 1 1 1.6191 13.9354 2.1751
1005 1 1 17.5225 12.4648 2.76172
1337 1 1 3.83026 13.3346 4.78901
1093 1 1 4.40915 9.9717 1.8069
571 1 1 8.11711 7.0684 4.52547
627 1 1 5.41149 9.76969 2.28473
1163 1 1 5.13607 12.7034 3.06055
1417 1 1 6.17725 13.0198 2.84342
1072 1 1 9.47194 11.4616 5.52601
1542 1 1 9.19144 12.1219 2.59202
2017 1 1 12.9949 11.3913 0.646372
379 1 1 15.0101 12.2291 37.0156
574 1 1 13.5425 12.7318 2.28379
276 1 1 12.7167 8.79118 1.34568
790 1 1 16.7234 10.6931 3.52688
7798 1 1 12.4344 10.0541 5.82345
1631 1 1 16.8112 7.28739 3.2113
7474 1 1 0.0401958 10.2641 1.61577
7249 1 1 2.05486 11.6272 2.04302
7451 1 1 0.610158 9.91946 0.497068
7525 1 1 0.993917 16.0257 0.920587
590 1 1 2.23568 10.7324 2.56223
7805 1 1 3.40931 11.4924 2.67117
7576 1 1 5.13831 10.9364 1.2828
374 1 1 6.50157 13.2238 1.75818
1061 1 1 6.07455 14.1465 5.05522
345 1 1 7.20949 9.96856 2.04467
970 1 1 6.24059 11.8542 2.58121
286 1 1 10.5173 14.8632 2.5608
7851 1 1 11.8523 11.9546 1.34416
872 1 1 11.1014 13.2681 2.0846
7858 1 1 13.6772 12.0473 3.48725
1193 1 1 14.7028 10.4365 0.0215877
669 1 1 14.6867 10.0736 4.25997
285 1 1 14.5095 10.8868 2.22847
4 1 1 17.6358 14.4853 35.735
877 1 1 0.609292 12.2959 3.73192
1120 1 1 17.0125 11.4632 0.854609
1116 1 1 18.0816 12.9254 0.908288
7849 1 1 0.359891 14.7095 1.00464
2037 1 1 2.29673 16.5691 35.3985
724 1 1 0.425036 13.4924 3.45732
154 1 1 5.18093 15.7596 1.75446
7503 1 1 7.08658 18.3719 2.15141
7004 1 1 7.51995 12.7543 0.896392
687 1 1 6.82674 14.6415 6.20862
64 1 1 7.74199 12.9815 2.31359
1210 1 1 7.43595 13.8176 1.77357
256 1 1 10.8395 15.5368 3.35083
7436 1 1 11.0613 16.9438 4.25567
7489 1 1 10.994 14.0483 0.958903
7550 1 1 10.8141 12.7115 3.05567
1537 1 1 13.2773 10.4625 3.57907
1107 1 1 14.8095 12.2863 3.63643
7052 1 1 16.806 12.8031 3.39964
7993 1 1 16.0967 13.5795 4.78898
6750 1 1 14.3829 13.6941 2.74864
265 1 1 17.0543 11.872 4.26711
6674 1 1 18.4379 12.354 4.39255
8000 1 1 2.87194 14.8879 1.70118
688 1 1 2.14957 13.3361 1.52067
1446 1 1 4.59634 16.4105 0.202368
1638 1 1 4.08299 15.4248 1.91286
1082 1 1 4.34665 15.5144 0.882715
336 1 1 1.92286 13.9493 3.22736
7613 1 1 5.92219 18.3204 3.13472
7562 1 1 9.53717 13.3937 4.97623
584 1 1 6.92439 14.8752 1.83305
277 1 1 6.53909 11.8598 1.54691
1226 1 1 10.3784 16.771 5.03272
411 1 1 9.68989 15.2182 3.64362
1706 1 1 12.0409 14.3625 1.78886
227 1 1 10.0788 13.5762 2.13774
7230 1 1 11.8588 16.3042 3.90161
425 1 1 16.4729 13.9854 1.66519
6832 1 1 12.0055 13.6218 2.62601
375 1 1 16.4114 15.7179 2.93967
465 1 1 15.9912 14.7631 1.07457
7811 1 1 17.1413 15.875 2.10648
6824 1 1 16.3269 13.2404 2.5624
2367 1 1 0.533933 17.4445 2.19436
1173 1 1 2.31142 15.3738 3.67592
7188 1 1 18.5181 18.0214 2.37281
643 1 1 0.860711 15.5239 2.05301
7957 1 1 3.74897 16.7901 3.33155
7561 1 1 2.28772 14.8419 2.68978
795 1 1 2.44801 17.6375 1.21859
1453 1 1 4.37149 16.4388 1.49127
1908 1 1 7.8415 11.8031 1.69733
1047 1 1 7.07798 15.9963 2.57177
937 1 1 5.7562 17.4078 2.70038
841 1 1 8.45027 17.2498 3.42589
7984 1 1 8.07327 15.0513 2.74009
1064 1 1 10.0277 15.7824 0.756124
1143 1 1 12.5804 15.9863 1.64091
7620 1 1 10.8112 13.8417 2.8587
31 1 1 14.1267 18.4037 37.4151
501 1 1 13.5438 16.3593 0.892675
7779 1 1 10.8531 16.0615 1.34551
7040 1 1 12.2844 14.5088 2.98439
1590 1 1 15.1219 16.8131 2.45785
3499 1 1 14.4934 17.1593 1.41481
6905 1 1 16.1101 15.5711 1.6813
40 1 1 0.147305 17.9493 3.9781
809 1 1 0.912465 17.3827 3.99107
1086 1 1 1.09263 15.3566 3.52822
325 1 1 4.23339 14.1767 4.1114
682 1 1 1.74359 16.6707 1.29687
7119 1 1 4.87113 18.7086 1.76025
43 1 1 6.73383 17.2668 2.12574
2026 1 1 6.12367 0.0774089 0.777845
814 1 1 9.83725 0.917172 1.93288
7508 1 1 11.3454 17.3232 0.890175
7349 1 1 10.5064 0.925155 37.5147
781 1 1 10.1636 17.2716 2.80241
6027 1 1 10.1856 16.5158 2.10315
1229 1 1 15.3785 1.45432 3.72452
708 1 1 11.5719 17.155 2.21852
2038 1 1 13.9208 16.2897 1.91592
33 1 1 17.2298 17.5625 1.78694
1200 1 1 17.5419 16.7858 2.55943
845 1 1 2.27888 1.5423 4.19104
1930 1 1 3.78575 2.42266 4.43425
480 1 1 4.07593 1.14406 2.23785
1514 1 1 3.93431 18.3623 3.96911
1461 1 1 4.88817 18.2024 4.4367
7926 1 1 5.78069 16.6354 2.04063
605 1 1 7.12949 0.783779 1.11048
1687 1 1 9.23138 18.396 3.29614
7745 1 1 11.0099 18.0921 2.61961
7580 1 1 12.7177 -0.0186284 5.44104
7656 1 1 12.2944 16.924 5.25167
1270 1 1 15.6341 18.721 5.25138
7 1 1 16.1924 18.2759 3.12342
7601 1 1 18.5559 0.0146275 4.35734
109 1 1 18.5674 2.38214 4.79952
7848 1 1 2.63386 2.42283 8.12975
1205 1 1 0.493011 1.14725 5.44541
799 1 1 4.55396 4.81694 6.618
7896 1 1 5.32381 1.10918 4.88217
450 1 1 6.68903 1.45077 2.28373
7715 1 1 6.46041 17.9668 6.7476
1331 1 1 5.14905 4.40453 2.5306
7700 1 1 8.94359 16.6981 1.86031
7785 1 1 8.95792 1.37187 2.44146
7616 1 1 9.93393 0.740574 3.23703
385 1 1 9.71958 2.3349 2.26458
890 1 1 10.1014 3.26203 4.07532
149 1 1 14.7245 17.8752 3.9918
576 1 1 15.669 0.179826 2.50478
1992 1 1 13.8219 1.45673 3.4743
1785 1 1 14.9721 18.5348 1.08779
946 1 1 14.7348 0.552311 3.93568
1037 1 1 14.1178 2.72816 0.577153
1203 1 1 12.8487 2.79632 3.85419
2099 1 1 16.9166 0.528598 6.15847
525 1 1 16.7017 18.4022 1.70742
7914 1 1 15.7617 0.850217 4.37608
283 1 1 18.0339 1.55889 6.115
1602 1 1 4.34085 2.6805 6.41438
139 1 1 0.360027 4.04787 5.50659
1194 1 1 3.13131 5.03382 7.11736
729 1 1 3.75624 4.65112 6.07528
7996 1 1 6.8301 0.603342 3.84893
656 1 1 4.03918 3.29395 5.10304
2046 1 1 5.56719 2.25387 2.57973
611 1 1 4.83488 3.07982 2.67251
209 1 1 8.16823 1.21293 4.85813
936 1 1 4.07806 2.79802 3.50398
1776 1 1 6.61981 0.118633 4.97266
887 1 1 10.9325 0.756126 2.54515
1378 1 1 8.94744 2.98153 4.37974
1416 1 1 9.036 3.79953 3.0478
1344 1 1 13.1324 1.01912 2.59134
906 1 1 13.9512 2.88968 3.03826
7827 1 1 14.1523 3.14512 5.09681
2323 1 1 16.4553 1.84714 4.07468
2471 1 1 1.0681 18.3732 3.5104
552 1 1 0.726493 1.8479 4.14004
745 1 1 17.9687 0.607156 2.32988
2071 1 1 18.3732 5.08639 3.92069
1717 1 1 1.73365 5.49733 4.99916
1202 1 1 3.77873 4.28833 3.71705
7754 1 1 4.52992 1.78699 2.93585
7648 1 1 7.06286 3.77027 3.23917
1376 1 1 5.67811 3.08393 3.37218
604 1 1 4.16051 6.30086 6.8587
566 1 1 8.23871 1.7065 3.30767
2348 1 1 8.05109 3.32878 2.91964
1466 1 1 7.53306 4.84528 1.73724
2126 1 1 7.83386 2.17025 4.2853
156 1 1 9.22592 3.69788 5.9341
469 1 1 9.19893 3.98711 4.17235
636 1 1 15.0492 2.39919 3.36727
387 1 1 12.0785 6.43855 3.84118
6762 1 1 16.3894 4.82796 1.07233
1231 1 1 18.0563 2.18437 2.13297
6804 1 1 18.6789 4.16531 4.4234
2357 1 1 15.8815 5.30628 1.93206
913 1 1 0.542363 5.36577 4.31351
1316 1 1 18.3525 5.62493 6.55324
912 1 1 5.36748 6.84515 4.72413
6975 1 1 2.16447 4.02405 2.89236
1802 1 1 5.17423 5.84261 4.86888
454 1 1 8.72465 5.23585 5.13973
358 1 1 5.2106 5.07588 3.48762
7096 1 1 9.10111 6.20789 3.41519
582 1 1 10.2411 3.35881 6.08308
7904 1 1 11.2553 6.71984 2.16714
1759 1 1 9.54379 7.18917 3.40418
401 1 1 13.2678 4.83125 7.12462
908 1 1 14.0794 5.67883 5.3956
1793 1 1 17.8339 7.53727 3.10918
1709 1 1 18.4056 7.29205 3.94258
7228 1 1 17.0163 4.95198 5.61475
752 1 1 0.234212 7.19537 5.57191
481 1 1 0.852191 6.68486 3.34379
1399 1 1 0.499617 7.6867 4.30527
1443 1 1 2.6257 5.85182 4.67719
45 1 1 6.36435 7.32681 3.5656
996 1 1 1.34624 8.50869 2.53277
7651 1 1 2.12646 6.48559 5.82825
1405 1 1 5.45025 8.32654 4.99212
661 1 1 6.6596 4.0284 2.28851
177 1 1 8.50253 5.85333 4.15354
1301 1 1 7.40542 7.74824 3.36316
1609 1 1 7.54192 8.6046 5.09711
462 1 1 9.12679 8.84386 4.53014
7743 1 1 9.58338 4.99245 5.67341
74 1 1 10.9068 7.95158 4.80287
551 1 1 10.651 7.70304 6.51517
1822 1 1 9.51065 7.16436 6.7911
556 1 1 14.1964 9.04971 4.12933
1939 1 1 14.7003 7.01966 4.31845
2594 1 1 16.635 6.10196 5.78703
1728 1 1 18.1223 8.50238 1.22063
1396 1 1 17.4551 5.11365 7.56796
1128 1 1 1.46966 10.4006 3.24262
175 1 1 3.1197 7.62632 0.582124
1419 1 1 4.01474 11.121 6.2724
925 1 1 4.09573 10.8789 3.02145
1475 1 1 3.57967 7.81656 5.0787
896 1 1 3.00677 12.9843 5.16687
7862 1 1 6.21578 8.12826 2.80135
7953 1 1 8.78285 9.65643 3.31678
955 1 1 9.14308 9.48159 2.31693
1217 1 1 8.88994 10.3674 1.50113
7334 1 1 8.45633 6.50779 8.07096
232 1 1 11.9787 11.4984 4.19349
1833 1 1 12.8763 7.62625 1.80751
253 1 1 14.7093 9.76976 5.20818
600 1 1 16.2723 9.80534 4.20442
1422 1 1 14.2839 10.109 3.02981
108 1 1 15.211 9.73051 3.34559
1498 1 1 12.0632 8.65095 4.98737
1715 1 1 16.2509 8.20041 2.89498
914 1 1 16.9951 5.60351 4.3856
146 1 1 16.8347 10.945 2.14306
1350 1 1 16.1514 9.38281 3.26395
7397 1 1 16.0376 10.2372 1.99402
1798 1 1 18.5169 7.27394 6.6594
1637 1 1 17.9286 10.7348 2.30749
6972 1 1 18.5794 9.40507 2.25995
1878 1 1 2.29273 10.889 3.90728
393 1 1 1.10651 14.4451 3.85817
6683 1 1 3.43091 11.5202 4.0932
201 1 1 5.99507 12.645 3.83518
1427 1 1 5.57197 6.54498 2.9117
1135 1 1 6.72285 11.8917 4.71292
1177 1 1 8.00487 8.21361 4.07265
825 1 1 5.96757 10.2603 1.65814
3250 1 1 7.85097 10.1697 3.2195
1112 1 1 11.2512 11.8559 3.51397
622 1 1 11.2833 11.9547 5.09803
1825 1 1 8.81977 11.0075 3.14777
526 1 1 13.4873 8.99868 6.87528
2244 1 1 12.1277 9.7511 4.74449
162 1 1 14.4854 9.32348 6.47958
1676 1 1 13.7817 11.9768 5.28413
1827 1 1 16.1759 8.88769 6.72896
960 1 1 15.3497 11.0401 3.02999
7603 1 1 0.31111 10.8285 3.90009
648 1 1 16.7027 11.8971 36.5307
715 1 1 1.10471 11.0497 2.25155
967 1 1 0.544985 13.2296 1.70669
1486 1 1 3.78121 12.2446 3.21858
52 1 1 4.47922 13.7223 5.6478
690 1 1 6.21269 10.5973 4.45638
216 1 1 4.01688 12.6128 5.4962
2215 1 1 6.8934 13.734 4.31551
290 1 1 6.73241 11.3222 3.5682
1175 1 1 10.5939 11.669 2.55969
1069 1 1 7.13479 10.4986 4.19619
1046 1 1 7.17124 12.8124 3.13519
678 1 1 14.2395 10.3082 5.83917
1757 1 1 13.8733 12.7857 4.27809
683 1 1 15.1275 11.6974 1.57458
235 1 1 15.7919 11.761 3.73839
7350 1 1 18.0583 13.3572 1.9911
306 1 1 17.5992 13.4866 3.07948
7480 1 1 16.6437 11.5672 2.94617
629 1 1 16.5496 14.4536 4.31131
300 1 1 18.2938 12.2371 2.11711
712 1 1 17.0846 13.1132 4.43223
1078 1 1 0.54337 12.8872 6.80402
7403 1 1 5.34859 13.6514 2.40213
6379 1 1 5.07458 14.5893 1.29742
1504 1 1 5.7557 13.6849 3.77067
815 1 1 6.59971 13.977 2.48707
6979 1 1 5.62219 14.8733 5.93033
1512 1 1 6.96394 11.08 0.21312
2425 1 1 8.9962 14.1913 3.91794
1139 1 1 10.9854 15.1522 4.38801
468 1 1 9.91942 15.1741 4.85568
1912 1 1 7.15031 14.8578 3.30328
572 1 1 8.0204 13.9232 3.60129
1533 1 1 12.8146 11.3209 1.62522
1187 1 1 11.6558 13.6629 3.68552
7853 1 1 15.2133 14.2259 1.40876
7893 1 1 13.5215 15.5159 7.03544
670 1 1 16.5506 14.3517 3.02061
1958 1 1 3.12758 13.2549 3.56578
844 1 1 0.148312 14.773 4.47185
853 1 1 18.2203 14.5632 2.96112
1561 1 1 3.4783 13.6121 1.66699
663 1 1 0.910555 13.7658 4.58496
1531 1 1 4.06506 14.3128 2.16221
902 1 1 2.96968 15.9286 2.77067
1266 1 1 6.3245 14.6899 4.08223
734 1 1 6.30661 14.8151 0.871793
1545 1 1 8.80461 13.0601 3.21746
317 1 1 12.459 15.4531 4.71238
460 1 1 10.2147 16.5541 3.68953
7704 1 1 13.424 14.0741 2.31049
7146 1 1 15.6663 10.1905 6.77794
990 1 1 16.3142 16.8926 3.83636
443 1 1 16.9828 16.0103 3.96037
1087 1 1 15.8896 15.4425 3.82167
1526 1 1 3.08973 14.4802 4.24121
1689 1 1 1.36744 15.8965 4.45287
812 1 1 0.977814 18.0867 5.52496
1198 1 1 2.07166 18.0894 4.46105
800 1 1 1.47618 14.3595 6.36068
816 1 1 2.21787 1.38739 1.60588
861 1 1 0.763858 15.62 5.54372
860 1 1 3.59546 18.6949 2.70493
1179 1 1 5.00942 15.841 3.84613
7123 1 1 5.2891 1.33991 3.79245
2824 1 1 5.73778 17.6273 1.41928
7627 1 1 8.79391 16.8297 5.36371
504 1 1 8.21935 15.2524 3.70824
260 1 1 6.26355 15.5167 2.87218
384 1 1 9.1787 16.2784 4.24767
423 1 1 12.68 15.4438 2.62945
1579 1 1 13.2055 14.2605 5.259
1541 1 1 11.4284 16.3352 5.28347
7990 1 1 11.4443 15.2313 2.47156
818 1 1 13.0804 17.2265 3.75885
7911 1 1 15.4943 18.7809 3.70675
7635 1 1 13.8517 14.1967 1.17729
1474 1 1 15.5827 16.5681 3.30112
1406 1 1 16.2338 17.4015 4.94107
278 1 1 17.9869 17.8646 6.36599
1149 1 1 17.9142 16.8187 4.28528
843 1 1 16.9375 17.9065 0.80726
1569 1 1 2.13996 18.2983 0.473277
686 1 1 2.68066 16.4186 4.72142
728 1 1 2.84808 17.3594 3.99337
1140 1 1 3.96794 17.0992 2.32253
115 1 1 2.93761 2.58604 2.77185
1932 1 1 5.38825 15.2307 4.71122
888 1 1 2.96216 16.1504 3.75603
293 1 1 6.04267 0.445733 3.17495
171 1 1 7.51659 17.4201 4.09291
7619 1 1 7.9581 18.7536 2.72465
1131 1 1 8.46755 18.1973 5.35727
1133 1 1 11.858 17.326 3.41701
421 1 1 13.7848 18.6276 2.31434
224 1 1 11.2766 18.2725 1.15065
390 1 1 8.64348 0.541866 4.18908
7987 1 1 12.4918 17.6302 2.38675
7938 1 1 13.0567 0.947691 0.977066
7149 1 1 13.9976 18.1275 1.44657
948 1 1 12.9655 17.0876 6.08522
427 1 1 17.7495 17.807 3.58888
822 1 1 17.6776 17.9675 4.67424
1554 1 1 17.5215 16.9831 6.52905
328 1 1 17.5955 18.4735 2.06581
915 1 1 3.46484 0.444958 4.16366
7197 1 1 4.92326 17.563 3.40868
1643 1 1 0.425463 0.868946 6.74438
2285 1 1 5.17782 -0.00032759 3.51172
1488 1 1 5.89012 0.252334 4.37064
767 1 1 4.17071 16.6825 5.22172
248 1 1 5.9926 18.0712 4.43491
7678 1 1 8.08724 16.4132 1.28475
7524 1 1 5.23503 0.489787 7.00759
2140 1 1 6.49078 0.81982 7.12155
41 1 1 5.95064 17.9279 5.71252
14 1 1 8.48475 0.106625 6.02117
6673 1 1 10.8318 18.8089 3.42855
1582 1 1 8.8294 18.0755 2.32353
947 1 1 7.70188 3.54419 6.45941
671 1 1 12.8281 1.64452 4.15406
2109 1 1 13.7737 18.7013 5.53635
7549 1 1 14.1025 0.579225 2.84624
1999 1 1 14.6226 0.462727 5.41131
3146 1 1 17.8532 1.16263 5.11712
1591 1 1 17.3848 2.45324 5.88959
558 1 1 17.4278 18.7594 4.06903
869 1 1 15.7837 18.3402 6.36198
867 1 1 1.99381 2.84939 6.18542
1319 1 1 2.33849 18.2671 5.53796
1129 1 1 2.74534 1.85414 5.68071
1197 1 1 3.23729 1.90626 7.10686
6767 1 1 5.95877 3.41175 2.4197
1675 1 1 6.0343 0.496095 6.09173
2136 1 1 5.25411 18.7443 5.45404
104 1 1 3.98503 0.446455 5.77503
885 1 1 10.1336 17.7078 3.69831
7762 1 1 7.9633 0.013532 4.77488
7997 1 1 9.77238 0.145546 5.8563
3337 1 1 9.44003 1.22009 5.53375
1658 1 1 8.50212 0.494774 1.96284
7989 1 1 10.403 0.951616 5.29826
616 1 1 11.6505 18.0778 4.69321
32 1 1 12.0917 3.81053 4.45289
859 1 1 13.4209 0.655947 4.95421
1345 1 1 14.6328 1.47472 4.52592
2392 1 1 15.3154 4.84233 5.10306
7044 1 1 15.6105 1.71432 5.0694
157 1 1 16.8745 3.0982 6.84111
1223 1 1 18.6341 0.881065 3.66156
119 1 1 15.9978 0.747458 5.68465
509 1 1 0.45941 2.25084 6.10002
792 1 1 3.02671 4.11362 6.63037
1325 1 1 5.3239 2.76615 6.95206
910 1 1 4.34295 5.60499 7.67624
441 1 1 3.86759 3.62298 6.50473
951 1 1 5.21013 2.63791 5.8081
1608 1 1 2.65552 3.71398 9.92353
2208 1 1 7.78812 2.67325 5.82423
455 1 1 6.30403 2.94405 7.1329
1375 1 1 7.46456 2.71618 7.25701
1255 1 1 6.91672 3.32264 4.46284
588 1 1 6.84674 2.06204 6.51182
2094 1 1 8.34959 1.99568 6.91906
593 1 1 9.28118 2.73703 3.11455
1749 1 1 10.2176 1.61502 4.39398
511 1 1 14.2436 0.616927 1.81421
180 1 1 11.6879 2.00854 3.44468
140 1 1 11.0205 4.02771 2.80428
1317 1 1 11.1321 1.7638 5.33856
1309 1 1 8.11764 4.9838 3.92135
850 1 1 13.8589 4.70459 3.75315
870 1 1 13.305 1.52043 5.67086
7712 1 1 13.8675 4.88667 4.86295
1413 1 1 17.2796 3.63234 4.47495
1338 1 1 17.8769 4.36141 5.0259
486 1 1 16.9386 4.30148 6.5928
954 1 1 0.558154 3.20502 4.31855
756 1 1 1.37127 4.64983 8.59372
2558 1 1 2.24256 4.09266 7.33959
1543 1 1 3.51388 6.08108 5.81891
1538 1 1 0.440902 6.62519 4.48067
1355 1 1 5.26643 2.50044 4.49455
1852 1 1 6.25039 2.56132 4.51309
7843 1 1 7.19832 3.63841 5.46462
1299 1 1 5.16136 3.64672 6.13088
252 1 1 9.19071 4.65739 8.04818
1098 1 1 8.17171 6.03785 6.64635
2139 1 1 11.2367 3.43604 5.80561