ITEM: TIMESTEP
2300
ITEM: NUMBER OF ATOMS
8000
ITEM: BOX BOUNDS pp pp pp
0.0000000000000000e+00 1.8820720577620570e+01
0.0000000000000000e+00 1.8820720577620570e+01
0.0000000000000000e+00 3.7641441155241139e+01
ITEM: ATOMS id mass type x y z
2134 1 1 18.6807 0.761274 0.130543
420 1 1 1.19702 0.716215 37.4945
445 1 1 2.07321 0.412537 0.312139
834 1 1 3.31701 0.844708 2.15992
776 1 1 1.61092 1.26888 0.80491
105 1 1 4.50791 0.647702 0.801181
7919 1 1 3.69993 1.94457 0.664141
6851 1 1 5.423 0.702191 1.5928
886 1 1 6.08676 1.56861 1.24268
94 1 1 7.26589 1.25395 1.15094
7349 1 1 9.26491 0.0211263 0.965813
7785 1 1 10.1129 1.44803 3.14791
141 1 1 10.5988 1.0528 1.15954
11 1 1 13.7068 0.998362 0.346429
781 1 1 11.6992 18.632 2.8516
422 1 1 14.6683 1.29228 0.155522
7708 1 1 15.7284 0.0219218 0.0287222
7987 1 1 13.3599 0.380114 1.28829
7669 1 1 17.2167 2.53994 0.610004
1142 1 1 17.608 1.23889 1.61569
366 1 1 17.4419 0.520627 36.4514
351 1 1 17.2664 18.24 36.846
7950 1 1 1.88809 3.41367 37.0658
318 1 1 2.35271 4.48263 37.1377
18 1 1 2.96658 3.47126 37.0817
547 1 1 4.60212 1.92838 1.36239
62 1 1 4.50142 2.96052 0.469569
527 1 1 5.62592 2.99382 0.688469
6648 1 1 7.03532 2.32004 1.00686
529 1 1 7.83957 1.99946 1.84408
429 1 1 5.34798 1.36672 0.517203
464 1 1 8.62076 2.77406 1.7173
292 1 1 8.58957 1.78202 1.26095
7580 1 1 10.0819 2.01631 0.708748
7287 1 1 11.543 2.35695 1.03768
7611 1 1 12.3494 4.29941 1.1222
787 1 1 12.9165 3.14758 37.6193
7549 1 1 11.8149 1.08366 1.93979
543 1 1 13.7154 2.32221 0.0836471
356 1 1 15.4614 1.64516 0.6521
7713 1 1 13.9324 18.3424 36.7147
1634 1 1 18.1009 2.39043 2.23505
383 1 1 16.2859 1.42625 0.277945
1110 1 1 0.569391 1.55271 0.0952348
35 1 1 18.3971 4.96973 0.242346
7690 1 1 0.932635 3.72175 0.847762
7972 1 1 2.84382 3.40013 1.00176
34 1 1 2.12036 4.27693 0.653086
7647 1 1 1.34795 3.13627 1.59632
835 1 1 3.23115 4.82662 1.94968
1239 1 1 3.15878 2.49037 1.99887
7366 1 1 4.00702 3.70726 0.989263
219 1 1 3.27056 4.18891 0.492125
323 1 1 5.03123 3.97757 0.374134
7413 1 1 6.44584 3.69107 0.953907
217 1 1 6.96435 2.11246 37.1997
824 1 1 10.3014 3.24772 2.74685
779 1 1 10.7605 2.95792 0.658235
7591 1 1 14.1925 3.09637 1.46794
6821 1 1 11.6862 3.51338 0.370077
39 1 1 14.5806 2.91184 0.519391
6823 1 1 17.4025 3.18103 37.3256
6399 1 1 15.7103 3.53868 1.12114
76 1 1 16.0795 4.80717 36.7996
7960 1 1 0.450493 4.52001 1.56816
81 1 1 1.94908 5.76991 2.44104
475 1 1 2.93523 5.46183 0.905349
1488 1 1 3.6209 4.89954 3.13814
6995 1 1 4.26726 6.14252 1.18932
7028 1 1 5.37782 5.38959 0.454973
623 1 1 6.86523 4.59668 0.144257
587 1 1 8.32726 4.29919 0.91722
1701 1 1 9.78647 3.63342 0.190574
107 1 1 11.0863 6.06034 1.52359
7422 1 1 13.3519 5.6178 36.998
2153 1 1 14.878 4.04449 1.58085
1109 1 1 12.7425 4.7222 37.5249
1309 1 1 16.132 4.4184 1.38691
7444 1 1 14.8229 4.67529 0.453812
591 1 1 14.894 5.10861 1.658
1718 1 1 17.1471 4.57134 2.35442
7636 1 1 17.1407 4.88405 0.644361
6828 1 1 14.8656 6.01735 0.688531
6762 1 1 0.276483 5.35876 0.839597
6443 1 1 18.2966 5.95241 1.05001
7845 1 1 18.1208 7.39582 0.693555
966 1 1 2.91027 6.91383 0.603289
7424 1 1 4.43682 7.02889 0.541083
796 1 1 6.18907 5.14223 1.4972
488 1 1 7.25185 5.99531 0.960019
542 1 1 9.18885 5.8038 37.2744
178 1 1 7.94806 6.55656 0.00282573
7071 1 1 8.23042 5.41922 0.438386
91 1 1 10.0781 7.10102 1.83531
7468 1 1 11.5901 5.60663 0.230285
156 1 1 9.65971 4.86553 2.81236
461 1 1 12.4727 6.41264 0.963261
281 1 1 14.0965 5.3266 0.779418
908 1 1 15.3714 6.60191 1.88828
7440 1 1 16.6081 5.49657 1.29545
7756 1 1 16.0156 5.66771 2.08818
7641 1 1 17.9877 6.17423 37.382
560 1 1 1.07933 8.12078 1.64192
197 1 1 2.79127 7.82051 37.1605
10 1 1 3.90368 8.40786 0.813879
7643 1 1 3.30258 6.65796 1.79798
60 1 1 5.80092 7.50718 0.228703
153 1 1 5.71204 8.09007 1.18683
15 1 1 5.38208 8.99082 0.0013442
7002 1 1 7.88832 7.5254 1.12162
932 1 1 5.22997 10.0686 37.3263
973 1 1 10.011 9.0421 0.253441
6933 1 1 10.3236 7.46688 37.6326
7654 1 1 9.35599 6.93233 0.705912
1020 1 1 11.4837 5.6447 2.36399
74 1 1 11.0016 7.35635 1.22236
538 1 1 13.4545 9.68604 1.74627
1238 1 1 11.6303 9.68458 36.3788
1044 1 1 11.7712 8.44179 37.6002
144 1 1 14.4958 6.87465 0.699277
349 1 1 16.056 9.81182 1.73085
6316 1 1 14.0453 7.16971 2.27142
238 1 1 16.1056 8.71431 1.45902
118 1 1 17.1078 7.21463 0.692078
1318 1 1 18.2071 9.11475 36.7933
7758 1 1 18.1533 8.32666 37.5424
1360 1 1 0.167486 9.46061 2.00362
158 1 1 1.78351 9.29579 1.93981
997 1 1 1.15713 9.12835 0.745048
478 1 1 2.09008 9.26207 0.761465
7795 1 1 18.643 10.0277 1.12028
7847 1 1 4.56293 11.851 0.519819
1048 1 1 5.25995 10.256 0.79464
138 1 1 3.81723 10.3602 0.527155
6136 1 1 7.68256 8.69764 37.3371
645 1 1 6.48947 8.54437 37.6175
133 1 1 8.75632 9.9491 1.24892
7932 1 1 10.4635 9.85662 0.931459
7825 1 1 10.4944 9.39563 36.0313
188 1 1 13.1905 10.3106 1.03545
679 1 1 15.7658 11.0803 0.00550096
308 1 1 15.6583 7.02086 0.906253
928 1 1 18.342 8.44071 1.5992
6972 1 1 0.0588789 11.4245 2.00239
7474 1 1 17.7396 10.3818 0.869427
202 1 1 1.05936 11.5307 0.513086
7812 1 1 2.19726 10.566 0.386073
222 1 1 3.91 9.52479 1.27707
7576 1 1 4.62591 11.4783 1.70355
16 1 1 6.39232 10.9041 0.173393
7894 1 1 5.52994 11.5794 37.49
345 1 1 5.6712 11.3788 1.94862
7862 1 1 6.5799 10.8127 2.18182
154 1 1 4.48187 13.3126 2.24537
424 1 1 9.52739 9.07143 36.7341
7538 1 1 11.9668 10.2878 0.751145
1790 1 1 11.3336 9.18413 2.38489
574 1 1 11.9126 11.6117 37.6067
610 1 1 12.5931 10.103 2.54692
7851 1 1 12.7627 11.2909 0.535167
7544 1 1 14.1706 11.0762 0.321431
4 1 1 16.7893 11.3789 0.667264
7350 1 1 16.49 11.7408 1.85589
165 1 1 0.105888 11.761 0.749069
962 1 1 1.58246 12.8367 0.0846462
203 1 1 3.63244 11.8964 0.465344
6578 1 1 2.37768 13.7075 37.2394
215 1 1 3.10847 12.7102 37.0455
243 1 1 4.21928 13.0634 37.3414
7376 1 1 5.36812 13.0451 1.52013
773 1 1 6.75858 13.7872 37.403
453 1 1 5.95831 13.4848 0.442288
1135 1 1 7.8203 12.7216 0.711711
970 1 1 7.01107 13.7424 1.189
699 1 1 8.78747 11.6795 0.652327
1906 1 1 9.88896 10.7073 0.509183
993 1 1 10.9042 12.4884 0.277921
660 1 1 11.0119 13.3474 0.881022
256 1 1 12.34 9.624 1.68728
790 1 1 14.289 11.7688 1.22829
7811 1 1 13.3654 14.138 1.07876
705 1 1 13.727 12.118 0.160641
7410 1 1 12.7939 12.4611 0.619844
1073 1 1 17.4669 12.1488 0.74112
7858 1 1 15.5404 12.2865 1.16912
7052 1 1 15.2173 13.1226 1.81223
237 1 1 17.3476 12.2529 37.1583
7479 1 1 0.845284 12.5767 0.900776
7817 1 1 0.721861 14.7929 0.847674
704 1 1 2.759 14.054 0.484297
751 1 1 4.08093 13.6612 1.13817
7004 1 1 7.7032 13.9687 2.71225
584 1 1 8.47559 13.9452 37.2825
7543 1 1 10.0238 13.9886 0.50488
7464 1 1 10.4143 14.6384 1.22095
7516 1 1 13.5262 15.0181 36.6755
1153 1 1 13.9467 13.2647 0.304972
7898 1 1 14.5751 12.8425 1.14148
113 1 1 16.7204 14.0078 37.3932
7022 1 1 16.7715 15.3042 0.189503
306 1 1 16.1994 14.105 1.6773
1108 1 1 17.0221 13.2654 36.5754
1561 1 1 1.51147 14.977 2.22171
7086 1 1 2.52672 16.7177 0.118287
1173 1 1 2.69392 16.3566 1.19546
7934 1 1 1.52062 15.6257 37.4221
7180 1 1 4.25129 15.9216 1.69739
439 1 1 4.21607 15.2345 0.743986
7840 1 1 3.12537 15.3554 1.24872
7755 1 1 3.68591 14.4988 1.31918
287 1 1 7.80027 16.1652 1.33791
6411 1 1 7.0755 14.6394 1.75869
255 1 1 6.04205 14.4957 0.94701
7527 1 1 7.30678 15.1843 0.4926
229 1 1 8.80319 16.7574 0.733741
227 1 1 9.47915 14.8588 0.287599
7206 1 1 11.054 15.5469 0.303942
7436 1 1 12.3505 14.066 1.43042
7230 1 1 12.9161 15.2482 1.38426
7853 1 1 14.0616 13.7447 1.61895
7075 1 1 11.9287 15.1677 1.11546
1199 1 1 15.1264 14.2854 36.9497
1997 1 1 15.1614 13.8633 1.08119
6905 1 1 17.2077 17.1383 0.326541
609 1 1 17.7236 13.9071 37.5669
753 1 1 17.9828 16.0807 36.4057
2159 1 1 18.6919 14.4146 0.257743
7560 1 1 1.17846 18.7532 0.981899
7163 1 1 0.259786 16.6624 0.121961
8000 1 1 2.53022 17.3729 2.46446
7930 1 1 3.92005 17.9681 0.35386
7886 1 1 4.68262 17.1942 0.720576
414 1 1 5.16048 15.7347 0.797966
7610 1 1 6.66667 15.4102 37.1642
7535 1 1 5.14009 18.1595 1.49096
738 1 1 6.42316 16.2766 0.691384
17 1 1 8.1347 15.7323 37.0513
419 1 1 8.21095 15.1139 1.37189
675 1 1 10.0664 16.5425 36.6578
2661 1 1 11.7316 17.5362 1.23103
7597 1 1 13.3087 15.6516 0.348377
6914 1 1 11.7973 17.5784 37.5771
7489 1 1 11.6496 15.975 1.96132
7504 1 1 12.7267 16.433 0.376358
7634 1 1 13.8246 16.2223 0.871232
7341 1 1 15.1494 16.5824 0.408409
837 1 1 15.1082 15.0543 0.934681
278 1 1 16.2552 16.3658 0.24431
40 1 1 2.44954 18.7664 1.18648
7122 1 1 2.72135 1.57459 0.635887
7964 1 1 5.33044 0.097545 0.506925
7416 1 1 4.78269 18.1254 37.0386
7267 1 1 4.33115 0.286155 37.4919
1485 1 1 6.92704 17.9478 0.474531
1584 1 1 7.62306 17.27 0.191702
7614 1 1 7.23633 0.0768307 37.1494
7980 1 1 8.41723 17.7142 0.934309
391 1 1 9.61971 16.7676 1.5349
7994 1 1 11.1098 0.267592 1.47599
377 1 1 10.6344 18.2416 1.86831
7929 1 1 10.6516 17.0403 1.39451
7149 1 1 12.7575 0.214383 2.20966
7620 1 1 13.1248 17.867 1.50347
7443 1 1 16.0265 16.3999 1.66255
5999 1 1 16.812 0.649858 1.35761
7188 1 1 17.6504 17.0117 2.90325
692 1 1 17.7107 18.3544 0.146654
7635 1 1 17.1172 17.9774 2.93345
7265 1 1 18.662 1.428 2.21715
1198 1 1 1.84713 18.6122 4.3645
430 1 1 2.34018 1.31965 1.61085
7119 1 1 4.14958 1.54706 2.23899
686 1 1 3.21397 18.3641 2.2329
7926 1 1 5.01908 1.10952 2.58084
1168 1 1 6.9594 0.982032 2.24152
428 1 1 6.42774 18.4793 1.39731
7532 1 1 6.11427 1.48271 2.46894
7619 1 1 8.94311 0.620371 2.95248
7698 1 1 7.9884 16.6277 2.2833
700 1 1 9.80835 1.51497 2.02519
55 1 1 7.96717 18.5601 1.7225
421 1 1 11.5197 0.719222 3.46397
726 1 1 10.6002 0.321847 2.93915
7040 1 1 13.9736 18.1395 2.92611
2020 1 1 15.7072 0.804531 1.54731
437 1 1 14.0868 2.05376 1.28532
7547 1 1 16.6166 1.77538 1.79657
1964 1 1 16.986 1.20282 2.92108
398 1 1 18.7402 1.15969 1.1786
1636 1 1 0.534633 2.38638 0.987464
1554 1 1 0.686901 1.74595 2.82109
2681 1 1 2.09883 2.19386 2.3244
1160 1 1 1.62118 2.48569 0.828197
7896 1 1 3.35227 1.84233 3.08644
767 1 1 4.07463 2.29663 3.87502
1327 1 1 4.44684 1.24255 3.56767
7585 1 1 5.13898 2.2454 2.50807
7856 1 1 8.45193 0.8016 1.85838
1196 1 1 8.62235 1.77203 2.43518
2150 1 1 8.58265 3.37849 3.67213
1270 1 1 11.8866 1.70612 3.65197
224 1 1 10.5216 2.26401 3.77535
7938 1 1 11.0427 1.93965 2.54605
151 1 1 15.2685 3.1125 2.02814
1315 1 1 12.8351 1.51779 0.797001
1540 1 1 15.6242 2.12158 1.80446
7914 1 1 17.2625 2.35272 2.90301
155 1 1 0.461703 2.70789 2.0702
75 1 1 18.7863 3.88345 0.166691
412 1 1 2.3006 3.28214 1.94231
7754 1 1 3.65435 3.97338 3.36283
913 1 1 3.31865 3.6066 1.95957
7996 1 1 4.69491 4.16431 2.36095
5739 1 1 5.52311 4.3316 1.32095
7651 1 1 6.02504 4.91693 2.84366
7661 1 1 4.86433 3.0374 1.47242
2046 1 1 5.74809 3.52729 2.84958
1373 1 1 7.09176 3.40673 2.13487
7280 1 1 5.97095 3.53623 1.86169
566 1 1 7.33509 3.35662 3.08788
7250 1 1 9.15872 3.8718 1.49469
209 1 1 8.31781 3.20091 2.57196
7725 1 1 7.91029 2.69005 0.830587
7821 1 1 10.8272 3.24329 1.77073
537 1 1 11.9373 4.27163 2.33036
2103 1 1 9.27241 5.1819 1.3836
515 1 1 12.7995 3.44084 2.31441
500 1 1 14.1254 3.87099 0.338537
1213 1 1 14.7111 2.19442 2.73001
1229 1 1 14.6208 3.38009 2.78936
432 1 1 16.7741 2.81424 1.91502
552 1 1 18.5844 2.88106 3.28184
2160 1 1 16.6888 3.92236 36.8883
7665 1 1 18.3452 2.05569 0.747562
1316 1 1 1.98871 4.27386 2.09146
1319 1 1 1.3261 4.68985 4.29449
324 1 1 1.46379 4.26265 3.3963
7715 1 1 4.49373 3.33665 3.40825
2208 1 1 3.64643 6.01581 4.71254
1885 1 1 4.14736 4.86226 0.418526
1776 1 1 6.66763 4.35558 1.83864
454 1 1 7.32556 4.75192 2.90856
1051 1 1 6.66696 6.00746 1.9893
6986 1 1 7.79051 5.11068 1.62585
6617 1 1 11.2458 4.17525 1.59366
231 1 1 12.3504 5.36751 1.81862
505 1 1 13.7512 4.06234 1.82946
7827 1 1 13.5442 5.21109 1.68373
68 1 1 15.3965 4.32323 2.46868
554 1 1 17.8993 3.23699 1.05438
508 1 1 17.557 3.86094 1.9014
1717 1 1 18.3104 5.23904 4.08535
7841 1 1 2.67818 7.19515 2.72946
884 1 1 18.1483 5.02126 1.79801
7648 1 1 4.60051 6.10579 2.87284
1369 1 1 5.73329 6.41785 0.715412
7823 1 1 4.85409 5.208 1.64603
1287 1 1 5.28714 7.40784 2.5674
7748 1 1 6.8838 7.20593 1.20375
1339 1 1 7.65989 5.80531 2.44503
6659 1 1 8.84612 6.49422 3.68695
228 1 1 9.65147 5.99419 2.78048
551 1 1 11.1276 6.69233 2.41623
636 1 1 14.2252 4.51416 2.81667
1983 1 1 13.3689 6.53657 2.95051
1473 1 1 17.091 6.25497 1.67574
387 1 1 15.7622 5.6747 3.29996
1377 1 1 14.3629 7.47608 3.19358
978 1 1 16.8797 8.88802 0.16168
119 1 1 17.1593 4.21552 3.47854
2432 1 1 17.066 5.68555 2.73641
6875 1 1 17.8934 6.84979 2.20218
1396 1 1 18.4952 7.82591 2.41159
2110 1 1 1.31169 8.0295 3.08344
175 1 1 0.00997335 8.4706 3.41197
98 1 1 2.22715 8.37395 2.44794
489 1 1 1.91723 7.73366 0.865304
541 1 1 4.30972 8.1028 1.94671
1766 1 1 3.13858 8.89519 1.87976
7944 1 1 4.69017 7.10488 1.67628
102 1 1 7.53004 8.49196 2.99784
615 1 1 9.24872 7.91351 1.81256
53 1 1 9.02845 8.92624 1.52277
7335 1 1 7.22822 7.72004 2.0423
582 1 1 9.46365 7.23442 2.86563
7904 1 1 11.9236 7.8954 2.3824
1422 1 1 12.9045 8.29387 3.23753
638 1 1 13.4601 9.25501 0.660308
498 1 1 13.4678 8.53921 1.93904
2154 1 1 15.4964 7.68857 2.88467
557 1 1 17.021 8.35632 36.6197
1637 1 1 17.8786 9.02072 2.47354
757 1 1 2.4154 9.74702 2.71132
1003 1 1 2.14555 10.1674 1.65756
637 1 1 6.4549 9.49921 0.57508
571 1 1 6.06165 10.1194 1.56259
7541 1 1 4.54802 9.31266 0.486733
653 1 1 7.98373 8.62162 1.34283
95 1 1 6.58911 9.73633 4.15174
7788 1 1 9.04291 10.3865 2.24787
7334 1 1 10.1139 9.11087 1.86245
1532 1 1 10.58 7.95149 2.20035
1826 1 1 11.9828 6.84501 1.72694
1072 1 1 11.6352 10.3966 1.83071
6997 1 1 14.3575 9.87401 0.473335
146 1 1 15.9578 10.3454 3.02785
1350 1 1 15.0284 7.93071 2.05105
200 1 1 18.5404 9.61584 3.00402
162 1 1 16.8611 9.94523 3.27286
444 1 1 17.746 9.06862 1.05805
7897 1 1 1.08101 10.1209 1.46912
195 1 1 1.9428 10.9667 3.36776
1878 1 1 0.840156 11.0865 2.96712
6683 1 1 3.30678 10.6411 1.50528
300 1 1 0.871753 11.9879 1.70095
1005 1 1 2.80762 10.7244 2.72134
1529 1 1 2.03864 11.8579 1.70748
126 1 1 3.56045 11.5772 2.33847
1337 1 1 3.71182 10.7747 3.16893
1450 1 1 6.55657 10.7427 3.43916
1417 1 1 7.84347 10.7261 1.76523
304 1 1 7.85985 9.58186 0.884934
1112 1 1 7.3284 12.0294 1.68919
532 1 1 6.96439 10.469 0.993078
7822 1 1 9.28707 11.9731 4.73091
232 1 1 10.8973 9.81911 2.98494
6599 1 1 15.8719 10.6506 0.934686
683 1 1 14.6781 10.7986 1.29513
1537 1 1 14.7102 12.1104 2.51711
669 1 1 16.7614 10.8446 2.4936
6719 1 1 15.8138 11.4957 3.21802
7249 1 1 18.0411 11.0711 2.73624
1486 1 1 1.71362 11.9041 2.71672
125 1 1 2.00831 13.491 3.54605
1001 1 1 5.06919 10.7563 2.86304
1657 1 1 7.32952 10.8914 4.1519
530 1 1 5.59095 12.1163 1.14231
7953 1 1 6.14159 12.339 2.43386
7531 1 1 8.58184 11.4197 2.05746
1609 1 1 7.87506 10.8832 3.10768
381 1 1 10.3031 12.1318 1.71031
1070 1 1 11.2375 12.4421 1.9097
1069 1 1 9.87087 11.2583 2.16721
7945 1 1 12.2912 12.7706 2.88696
1193 1 1 12.5956 11.1024 2.14715
240 1 1 13.8924 13.1308 4.73132
7834 1 1 13.9361 13.1234 2.637
6563 1 1 18.2095 11.1697 1.25789
1282 1 1 18.4451 12.2458 1.42969
85 1 1 0.599133 12.7786 2.62523
1389 1 1 1.07473 13.8385 3.26105
590 1 1 2.77878 12.7522 0.969494
52 1 1 3.22729 12.6145 2.86556
1411 1 1 5.04485 14.0337 1.79191
331 1 1 4.24282 12.517 1.31089
7701 1 1 6.49451 13.1647 2.97669
7487 1 1 7.0038 13.1974 2.00674
6979 1 1 7.37821 15.2193 2.82951
2215 1 1 8.20294 13.7727 1.59021
1545 1 1 8.80243 14.5406 3.09394
690 1 1 7.45852 12.7707 2.8535
277 1 1 8.9619 14.5833 1.87768
572 1 1 10.5433 14.8716 2.78423
1187 1 1 12.4698 14.1088 3.20514
678 1 1 13.0813 12.8805 3.73481
7452 1 1 12.6202 13.0606 1.45349
7951 1 1 13.6587 14.0651 3.33729
273 1 1 14.9019 14.1234 3.16771
990 1 1 16.8689 13.8064 3.36794
1042 1 1 15.9923 13.8275 2.74168
7888 1 1 0.412602 13.4865 1.54868
7515 1 1 17.6979 13.0425 3.25435
435 1 1 17.2569 13.9326 4.28989
1078 1 1 1.05239 14.0973 1.97421
643 1 1 1.97923 16.3501 2.10866
1446 1 1 3.51626 15.4809 2.28858
350 1 1 3.94568 17.6234 2.25864
7503 1 1 5.22788 15.0854 1.95018
7123 1 1 6.95065 17.228 1.70666
1211 1 1 5.37641 17.0689 1.78179
6 1 1 7.86182 14.8906 3.81862
687 1 1 10.7298 15.8001 2.2717
1139 1 1 12.2607 14.6503 2.2599
411 1 1 10.5891 16.2036 3.3012
1107 1 1 13.2658 14.806 2.3657
6720 1 1 14.0847 15.0616 1.34611
259 1 1 14.3219 16.0916 2.78058
7893 1 1 14.2563 15.3151 3.72106
285 1 1 15.0152 14.4637 2.10371
234 1 1 16.0897 15.2258 1.01617
693 1 1 18.3289 16.3126 2.58159
663 1 1 0.0314948 14.1449 2.45285
2367 1 1 1.83283 16.9085 3.01395
7968 1 1 18.7721 15.6498 3.16719
1086 1 1 1.16165 15.8904 2.5972
899 1 1 2.487 17.8251 3.45946
1895 1 1 3.33311 16.6717 1.9691
374 1 1 5.01097 14.278 2.95039
7455 1 1 5.25709 16.0096 1.84124
325 1 1 4.88424 16.5579 2.73557
1453 1 1 7.00335 16.2178 2.44511
1226 1 1 9.49692 16.2327 3.68232
765 1 1 7.79934 16.255 0.35876
1131 1 1 7.64098 17.741 2.57283
1908 1 1 9.5449 16.0114 2.49117
1133 1 1 9.85892 16.9142 2.90296
6750 1 1 15.1477 15.5607 1.7969
7838 1 1 14.6091 17.3013 2.14325
375 1 1 14.6954 16.6256 1.36711
7777 1 1 16.2411 15.1549 2.04727
7993 1 1 16.8377 14.36 2.4819
7903 1 1 17.5777 16.8075 1.77568
443 1 1 17.329 15.9531 2.60053
163 1 1 17.0238 15.8031 1.5116
2037 1 1 18.3803 15.7718 1.66912
809 1 1 18.4446 16.4413 4.34039
1474 1 1 1.17886 16.8808 1.92454
847 1 1 1.06039 0.493039 1.98953
1713 1 1 2.19132 0.236465 2.22897
310 1 1 3.33988 0.465445 0.825713
207 1 1 4.13161 18.551 1.1649
814 1 1 9.68713 0.0966232 1.99224
740 1 1 9.15975 17.4823 2.17756
1047 1 1 8.72293 16.0914 1.69126
820 1 1 10.8702 16.8109 2.37704
708 1 1 13.7699 16.5361 1.92964
31 1 1 12.3779 15.787 2.74653
7508 1 1 10.8695 18.609 3.76846
1143 1 1 14.2934 18.3251 1.6778
328 1 1 15.9318 17.5341 1.80422
7044 1 1 15.5138 1.04932 2.6376
7844 1 1 18.702 17.2242 3.31334
7992 1 1 0.421415 18.2568 3.53634
1200 1 1 1.36189 17.6843 3.51199
843 1 1 0.720057 0.720348 3.31241
2029 1 1 0.433516 0.977431 4.39031
800 1 1 1.41667 18.5988 3.00275
1140 1 1 2.30382 0.176804 5.68538
37 1 1 5.35455 0.53031 3.62751
115 1 1 4.76621 17.9604 3.85152
248 1 1 6.54069 0.943636 4.62666
43 1 1 6.17535 0.225499 2.43821
1461 1 1 6.6945 0.574344 3.64046
7616 1 1 8.81254 17.3408 3.17526
390 1 1 9.90216 18.5412 4.51148
7656 1 1 9.87333 0.529093 3.55622
7989 1 1 10.6496 1.35953 4.40721
7855 1 1 12.9069 1.35696 2.8583
1973 1 1 10.3303 0.326413 5.67079
32 1 1 12.4355 0.0705855 3.88501
7 1 1 11.8439 18.4328 4.74554
7155 1 1 13.0123 1.70835 4.71009
7911 1 1 12.3911 18.4722 5.61422
948 1 1 14.1336 0.501348 2.50923
157 1 1 14.9434 1.8212 4.78678
382 1 1 15.1245 0.00979557 2.50873
7887 1 1 15.9728 18.6418 1.8012
33 1 1 15.8918 17.8027 3.00555
2347 1 1 18.1314 0.356406 3.32031
792 1 1 17.4499 2.33961 4.65939
1481 1 1 18.2597 0.430051 2.12171
1576 1 1 18.1771 1.37146 3.93869
1591 1 1 18.0311 0.236602 4.44095
480 1 1 1.73021 0.814887 3.99633
7601 1 1 1.0001 1.7098 1.59133
1514 1 1 1.43112 1.78655 4.33701
96 1 1 2.66191 2.5876 3.27044
7848 1 1 2.61205 0.660749 3.17455
7678 1 1 6.69854 2.14131 4.65579
2136 1 1 5.07326 2.40892 3.56806
603 1 1 4.19284 2.73899 2.2838
611 1 1 6.27203 2.50876 2.34055
7700 1 1 6.41717 2.4831 3.50068
1932 1 1 6.02172 1.46797 3.66405
6673 1 1 8.36891 1.14444 3.88202
1206 1 1 7.58418 1.99475 2.80387
385 1 1 9.41906 2.03969 3.80904
1138 1 1 10.9723 0.212172 4.61065
149 1 1 12.4144 1.01408 4.2891
2109 1 1 10.1896 2.28557 4.82677
7776 1 1 12.6586 2.08253 1.71006
2232 1 1 12.8199 3.30632 3.8408
147 1 1 12.0356 2.59821 4.18152
1223 1 1 13.5656 1.56361 3.8681
7478 1 1 14.7082 1.18468 1.79563
2038 1 1 14.3494 1.16402 3.38529
780 1 1 15.9336 1.95481 2.89135
1602 1 1 18.3962 4.07845 2.94812
321 1 1 3.44474 2.8048 4.40026
1194 1 1 1.87289 3.25613 3.20295
6767 1 1 4.55797 3.04443 4.64641
528 1 1 8.11594 4.23242 3.15069
7524 1 1 5.52006 2.71885 4.70716
455 1 1 6.31682 3.34475 4.24883
1381 1 1 7.37587 2.64764 3.97053
887 1 1 8.37642 2.3015 3.36266
173 1 1 10.2963 4.5158 2.17302
616 1 1 10.295 3.27381 4.06124
850 1 1 12.0621 3.75537 4.35173
651 1 1 12.888 4.7645 2.4966
1269 1 1 13.3138 4.11282 3.39537
2099 1 1 16.0599 3.12679 2.9228
1472 1 1 14.2737 3.95088 3.8002
401 1 1 16.3402 4.73488 2.81391
874 1 1 18.6621 3.65724 1.90681
139 1 1 17.0269 5.8216 4.55704
924 1 1 0.232897 4.39163 4.06675
7638 1 1 0.094639 5.53891 5.22133
1158 1 1 1.12293 4.86859 2.3226
47 1 1 18.6737 5.34781 3.07248
1323 1 1 5.88146 6.60498 3.15883
450 1 1 4.97083 4.83778 3.52587
1280 1 1 5.57611 4.97874 5.62755
1774 1 1 5.44153 4.60462 4.37702
1850 1 1 5.3385 6.42802 2.01806
1375 1 1 7.02167 5.0467 4.90816
239 1 1 8.53798 5.32199 2.37197
1658 1 1 9.24306 4.15116 4.2685
7762 1 1 9.13904 2.5261 5.08844
7745 1 1 11.1738 3.80502 3.4018
898 1 1 11.331 4.74269 3.75443
180 1 1 11.0705 6.32116 3.58789
446 1 1 12.0667 5.28749 3.05727
470 1 1 13.4975 6.72767 4.47788
1863 1 1 13.4412 5.66815 2.56238
906 1 1 13.6534 5.23949 3.63084
1338 1 1 15.1767 4.94662 3.83074
1670 1 1 16.8682 6.4393 3.79088
954 1 1 17.2177 3.38819 2.83972
1443 1 1 0.101246 6.78 4.41157
206 1 1 1.48563 6.6791 2.81855
7228 1 1 0.770712 7.82469 4.07783
45 1 1 1.52033 6.24573 3.85677
2357 1 1 0.394859 6.06157 1.9993
580 1 1 2.51244 6.31361 3.27134
1409 1 1 3.6829 6.65413 2.86267
82 1 1 4.62975 6.23777 4.34122
1376 1 1 6.6604 4.93102 3.99448
936 1 1 7.38484 3.95252 4.04998
1296 1 1 8.27491 6.20479 5.01952
1045 1 1 8.26185 6.79249 2.69338
1378 1 1 9.92867 4.87175 4.54581
1344 1 1 9.08159 5.41618 3.44568
575 1 1 11.0643 6.17593 4.81271
1039 1 1 12.3557 6.86841 3.04251
159 1 1 12.6552 8.28137 4.52932
7712 1 1 14.5226 5.87416 2.93318
1709 1 1 15.1851 6.76729 2.87298
7397 1 1 16.4517 6.67038 4.78188
1265 1 1 16.4721 6.61316 2.38504
7432 1 1 16.1443 7.57657 1.69364
1231 1 1 17.8382 6.64575 3.21788
996 1 1 1.86657 9.00736 3.70394
1314 1 1 3.00212 7.86959 1.58726
848 1 1 2.44206 8.04572 3.57032
983 1 1 3.5821 6.98849 4.12867
1262 1 1 6.39835 7.05255 2.40005
925 1 1 5.09274 8.19924 4.22566
241 1 1 6.90575 7.65744 3.29958
1089 1 1 6.66901 5.83024 3.312
568 1 1 6.04227 8.25655 2.6537
7659 1 1 8.66675 8.09604 3.90616
7743 1 1 9.10348 8.27655 2.98728
539 1 1 8.65107 7.26918 4.86792
462 1 1 9.51192 7.66154 4.03613
1478 1 1 10.3416 7.21273 3.74119
1925 1 1 11.7131 7.92514 3.53925
7428 1 1 12.7779 8.44994 1.18612
536 1 1 12.5471 9.14178 3.92432
956 1 1 14.1465 7.71099 4.23262
2594 1 1 15.341 7.5554 4.01489
872 1 1 14.0513 10.8895 2.42329
160 1 1 17.2285 7.65412 2.62156
960 1 1 16.0826 8.37013 3.37572
7603 1 1 0.0273419 9.69777 4.04822
959 1 1 0.0924287 6.96658 3.16153
7525 1 1 1.44513 10.8331 2.1751
1419 1 1 0.740459 9.39372 3.09687
441 1 1 3.37619 7.16763 5.46436
1427 1 1 3.13738 8.43331 2.95722
7482 1 1 4.14656 9.10954 2.47894
7322 1 1 5.87443 9.12598 1.6343
1163 1 1 4.57778 9.2644 4.20071
573 1 1 6.21101 9.83758 2.66376
685 1 1 6.57139 8.83503 5.18757
358 1 1 6.47831 8.43913 3.91711
177 1 1 7.49773 8.79124 4.14864
2065 1 1 10.6114 8.28321 3.17203
7096 1 1 8.61934 9.35936 3.34052
618 1 1 12.0564 9.5645 3.23151
1100 1 1 12.9457 10.0062 3.3884
276 1 1 13.7018 8.90936 2.92077
108 1 1 12.9885 11.2479 3.00403
602 1 1 14.8384 9.27731 1.86961
1033 1 1 14.616 8.5404 3.65936
271 1 1 15.8304 8.79352 2.41772
1798 1 1 15.4451 9.24222 4.0085
1631 1 1 17.0048 9.68055 2.00135
1439 1 1 0.139959 10.488 4.75714
1113 1 1 17.7836 8.2138 3.4421
639 1 1 18.2034 9.94244 5.83848
648 1 1 0.348786 10.9829 3.84955
7921 1 1 2.62156 9.58852 3.84886
201 1 1 3.41914 9.89787 2.62226
365 1 1 3.40073 11.114 4.093
647 1 1 4.30307 10.3627 2.20883
7791 1 1 5.31013 9.3234 2.66295
564 1 1 5.54771 10.6692 3.97441
357 1 1 6.83172 10.7496 5.83084
586 1 1 8.18232 9.63685 1.9626
1049 1 1 8.12266 10.9866 5.11085
492 1 1 9.44525 8.67704 4.69109
2244 1 1 12.1823 11.6993 3.55436
253 1 1 9.6655 9.94046 3.16804
1825 1 1 10.6451 10.5713 4.01705
1074 1 1 14.9119 10.4575 4.19419
1942 1 1 13.3 11.1799 1.36786
235 1 1 16.589 10.9328 3.49654
1676 1 1 14.7483 12.8465 3.65797
7480 1 1 17.1415 10.5919 4.26861
967 1 1 0.892657 12.0591 3.4344
1115 1 1 2.42485 11.1055 4.58661
7403 1 1 3.01712 13.3802 3.76024
684 1 1 2.55451 12.0612 5.45921
2755 1 1 2.1149 13.0135 2.37323
627 1 1 4.5941 13.0823 4.25584
1820 1 1 4.41483 10.6758 3.7918
342 1 1 5.77987 11.6704 3.01231
290 1 1 6.75605 12.517 4.34725
526 1 1 7.24864 11.7046 3.11665
315 1 1 7.76241 9.56158 4.79712
1175 1 1 7.70086 12.4681 5.34788
2017 1 1 11.2564 11.3532 1.79084
1833 1 1 10.2133 9.36671 4.37003
1542 1 1 9.32573 13.7251 2.43756
1103 1 1 11.8578 11.4351 4.70539
878 1 1 13.2112 11.9754 4.59724
600 1 1 11.9934 10.6733 3.85161
1046 1 1 13.3223 10.1503 4.94803
1151 1 1 12.876 11.0108 5.19061
265 1 1 17.2298 12.2541 2.72754
877 1 1 18.7086 11.9217 2.99394
1077 1 1 0.197372 12.7938 3.75984
7835 1 1 2.44777 12.1101 4.10584
6379 1 1 3.89641 14.2974 3.15729
2012 1 1 5.0047 12.0705 4.80106
1010 1 1 5.83135 13.6361 2.35971
2122 1 1 6.43766 13.8556 4.14666
1504 1 1 4.0708 15.0243 3.93444
1301 1 1 5.65862 12.9695 3.98368
813 1 1 6.33824 14.4727 2.74866
1512 1 1 9.20965 13.0223 4.29713
2062 1 1 10.6615 13.9493 1.89968
64 1 1 11.2694 13.8062 3.68408
823 1 1 10.1756 13.2417 3.65834
379 1 1 11.1287 13.0932 2.66329
1432 1 1 12.8773 12.9933 4.90072
968 1 1 12.9054 12.1961 5.72987
1445 1 1 18.0039 12.75 4.66259
2329 1 1 18.6952 13.4303 5.24197
7870 1 1 0.147555 15.2603 4.05485
688 1 1 0.306883 13.9756 4.09453
724 1 1 0.802976 14.9171 3.2969
1638 1 1 3.26133 15.3595 3.41518
853 1 1 2.32226 14.8452 2.83346
1082 1 1 2.7941 16.3064 3.18936
1136 1 1 5.25195 13.8439 4.18259
7613 1 1 8.50964 15.5819 2.93867
2824 1 1 9.09928 15.3391 3.90045
825 1 1 7.33968 13.3404 3.8249
468 1 1 9.99472 14.708 3.56644
1130 1 1 10.2918 14.079 4.39818
7704 1 1 11.4592 15.3052 3.08241
991 1 1 12.3079 14.1666 4.39351
1912 1 1 11.8509 14.9239 3.94486
982 1 1 15.0618 15.9501 4.36023
7147 1 1 13.9625 14.6188 4.37872
629 1 1 16.6759 15.1506 3.53664
670 1 1 15.863 14.6676 3.78
1120 1 1 16.2908 13.8147 4.447
1928 1 1 18.5051 14.5124 3.49659
1406 1 1 18.1199 17.7475 4.11348
1087 1 1 0.771049 16.1866 3.83059
816 1 1 2.47538 16.448 4.48687
2837 1 1 1.95908 15.7398 3.61677
370 1 1 5.51489 14.2767 5.36363
1729 1 1 6.14221 15.3517 3.95471
937 1 1 7.19805 16.9193 4.41734
734 1 1 6.70338 16.3937 3.56159
7627 1 1 8.49576 16.4271 3.45694
1094 1 1 8.48669 18.1157 4.23935
1583 1 1 10.1554 17.0596 3.86611
7550 1 1 11.9897 16.9499 3.21413
423 1 1 11.7912 16.024 3.76454
317 1 1 12.8738 15.0103 3.93172
7146 1 1 12.9441 17.1326 2.65015
465 1 1 13.316 16.2212 3.43209
769 1 1 15.0192 15.2075 3.01788
20 1 1 16.5349 16.7987 2.61598
822 1 1 15.179 16.5333 2.55104
1272 1 1 15.911 15.7501 2.8413
283 1 1 17.1585 16.4746 4.41571
1149 1 1 17.7637 15.6154 3.45134
1247 1 1 17.2508 15.2916 4.60472
1234 1 1 18.0228 16.9256 5.25336
6674 1 1 1.6297 17.0387 4.76555
888 1 1 3.54446 18.2735 3.93046
1650 1 1 3.26326 17.1583 4.11753
7562 1 1 6.58958 17.7421 3.25618
7210 1 1 5.92696 16.2549 2.50105
727 1 1 3.95568 0.390651 2.9072
293 1 1 6.09483 17.5535 2.40565
363 1 1 4.9696 15.711 4.04426
841 1 1 7.5941 18.0261 3.83863
171 1 1 7.31444 0.0649544 2.50063
496 1 1 8.0081 0.821093 2.95171
504 1 1 8.57315 16.7701 4.58157
7150 1 1 10.3314 18.0551 5.49337
838 1 1 10.881 17.7711 4.40848
2026 1 1 10.0033 18.2306 3.1586
6832 1 1 12.2975 17.9148 2.21705
427 1 1 15.2618 18.5761 3.91699
7551 1 1 16.0787 18.0763 4.34456
869 1 1 15.1541 0.759367 4.44287
1590 1 1 17.0893 0.0986049 2.22128
3143 1 1 17.0789 18.4728 4.4507
794 1 1 0.666753 18.6641 6.16541
7883 1 1 0.27997 0.88828 5.63941
1526 1 1 1.07238 18.0027 4.90507
1448 1 1 3.84133 0.447213 6.71686
728 1 1 2.79823 1.35228 4.7929
778 1 1 5.07122 0.963314 5.42779
452 1 1 4.60583 18.7485 5.79779
1122 1 1 5.64115 1.64742 4.93299
860 1 1 4.53788 0.273522 4.54149
1333 1 1 7.42401 1.49269 5.48819
971 1 1 6.01578 0.0398326 4.92876
1582 1 1 8.89165 0.473982 5.78359
38 1 1 6.87437 17.9335 4.68721
829 1 1 8.95344 0.212862 3.99227
605 1 1 7.60495 0.69295 4.49546
671 1 1 11.7834 0.671768 6.42788
1345 1 1 14.2362 1.73331 5.80603
655 1 1 14.1209 18.622 6.13682
1986 1 1 14.7083 17.6536 6.00212
409 1 1 15.9569 1.27471 5.58588
1152 1 1 14.678 0.812763 5.91008
1240 1 1 17.3852 0.107796 5.41924
312 1 1 16.5268 0.562719 4.7488
1954 1 1 18.3547 0.286876 6.07007
2365 1 1 2.53943 2.29092 4.53821
109 1 1 1.68151 0.968588 2.81441
1171 1 1 1.13456 1.67262 6.03872
763 1 1 3.54908 0.82509 5.42104
130 1 1 4.28773 1.82519 6.02663
104 1 1 4.59481 2.74773 5.77375
1675 1 1 4.08728 2.14135 4.92208
1328 1 1 3.83948 0.874794 4.2336
376 1 1 7.2218 1.55305 3.98438
1216 1 1 5.42294 2.32812 6.34904
7997 1 1 8.0183 2.26967 4.6543
1336 1 1 8.86315 1.20624 4.93184
946 1 1 11.3643 0.740438 5.45219
71 1 1 10.6048 1.51675 5.95244
947 1 1 8.3649 2.15115 5.64485
511 1 1 12.2611 2.72515 5.76385
2867 1 1 13.4306 2.53659 5.29982
1037 1 1 14.9543 1.93701 3.69354
2323 1 1 14.0973 2.49635 4.16854
2392 1 1 15.632 2.6612 5.14648
1205 1 1 16.3061 2.80426 4.32182
1594 1 1 18.2958 1.14709 4.95456
867 1 1 0.143461 3.3375 4.85659
7607 1 1 0.249443 4.53711 5.36591
1129 1 1 2.35194 3.24011 4.11221
491 1 1 3.65881 4.85618 4.56624
1245 1 1 3.93466 3.16817 6.36182
520 1 1 5.46159 3.79046 5.04428
885 1 1 6.07046 2.90397 5.56812
1331 1 1 7.277 3.63648 4.93719
1308 1 1 8.26762 3.81715 4.62232
588 1 1 8.3318 3.16643 5.57314
862 1 1 11.5724 3.15135 5.16913
576 1 1 10.9908 4.14384 5.70065
2075 1 1 12.4989 3.74464 6.03259
842 1 1 12.7234 5.91711 6.55335
514 1 1 12.5994 5.36526 4.35491
1458 1 1 14.6039 2.68811 5.62252
2471 1 1 14.6414 3.30431 4.6709
859 1 1 13.5862 3.6896 5.75749
745 1 1 16.5941 4.57605 4.66526
756 1 1 17.6635 3.34961 4.6035
799 1 1 1.02493 2.88554 4.23034
752 1 1 0.732426 5.5251 4.12251
1738 1 1 18.1776 5.74884 6.7824
2285 1 1 2.49454 5.24843 4.90888
729 1 1 1.66725 4.19481 5.40397
915 1 1 2.772 4.18228 4.60671
2054 1 1 4.55101 4.44007 5.37767
2602 1 1 5.66677 4.33085 6.55982
1098 1 1 7.28241 6.6373 6.05085
904 1 1 6.6967 5.04097 5.863
1255 1 1 7.9081 4.78799 5.57031
1416 1 1 8.03897 5.18692 3.43368
555 1 1 11.683 5.62485 4.26367
469 1 1 10.6591 5.44549 4.18061
140 1 1 11.4172 4.55132 4.79927
1413 1 1 14.6465 5.24984 4.85425
426 1 1 12.3076 4.68654 5.26549
1992 1 1 13.2409 4.31957 4.84259
1672 1 1 15.6411 5.85589 4.36623
1728 1 1 15.8012 6.6302 3.77074
1202 1 1 17.9916 6.10414 4.74622
525 1 1 16.2194 3.78449 3.79802
65 1 1 18.0296 4.11209 6.11998
7931 1 1 18.4035 7.92168 4.33406