ITEM: TIMESTEP
3400
ITEM: NUMBER OF ATOMS
8000
ITEM: BOX BOUNDS pp pp pp
0.0000000000000000e+00 1.8820720577620570e+01
0.0000000000000000e+00 1.8820720577620570e+01
0.0000000000000000e+00 3.7641441155241139e+01
ITEM: ATOMS id mass type x y z
7930 1 1 0.421626 2.13284 2.11554
148 1 1 1.65991 2.10006 1.34301
445 1 1 4.3868 1.42325 0.174363
7604 1 1 2.15797 0.697132 1.31084
194 1 1 1.23044 1.61866 0.12427
350 1 1 5.70397 1.4955 37.2229
249 1 1 5.27289 0.907138 0.43063
7964 1 1 6.57889 18.6376 1.50447
1206 1 1 7.99652 2.04801 37.5461
487 1 1 5.73689 0.926394 2.03578
7416 1 1 6.87874 1.18735 36.4027
6017 1 1 8.59929 1.0856 0.797592
7680 1 1 8.28487 18.7961 35.1343
1196 1 1 8.46044 0.602591 36.1913
343 1 1 10.252 18.5543 37.6213
7994 1 1 10.6214 0.536429 1.25189
6399 1 1 14.2772 0.468707 0.457898
7547 1 1 15.9234 18.2663 1.34884
383 1 1 15.8466 0.415516 1.93189
432 1 1 15.8319 0.117831 0.598234
7265 1 1 0.0728281 0.981362 2.2073
1964 1 1 16.8498 18.0112 36.8123
420 1 1 16.7175 0.995024 0.115608
18 1 1 1.40721 3.32816 1.59173
7690 1 1 0.895393 2.43787 0.565847
402 1 1 2.70717 1.75117 0.807605
399 1 1 3.61113 2.08878 0.900664
7919 1 1 6.0101 2.63166 0.659254
6851 1 1 8.07403 1.88672 0.906215
7267 1 1 5.23149 1.92685 0.619068
886 1 1 7.41541 3.16146 1.45494
527 1 1 6.31649 3.77295 1.80265
529 1 1 10.0933 3.36873 0.862165
6703 1 1 9.58431 1.74194 0.384131
7287 1 1 12.2604 1.54392 1.71531
356 1 1 14.3615 1.98081 37.2252
6617 1 1 10.412 0.887216 37.2765
1269 1 1 15.1765 1.03886 37.6216
1110 1 1 15.656 1.35404 0.879847
508 1 1 17.3731 3.0373 0.270804
73 1 1 16.0526 2.72582 37.1391
7972 1 1 1.69155 4.35758 1.06879
75 1 1 18.2783 3.7607 36.8723
6152 1 1 0.208009 4.1725 0.830131
219 1 1 3.20241 2.99366 0.0925551
7236 1 1 0.985961 2.69998 36.9669
7661 1 1 2.21178 5.0639 2.45454
7284 1 1 3.63807 3.56753 0.998612
5739 1 1 5.64158 5.22033 1.79904
7261 1 1 2.93352 2.65696 2.24068
3 1 1 5.63404 3.6159 0.669689
7251 1 1 5.34929 4.27806 1.46345
7300 1 1 6.78929 1.88429 1.84962
7660 1 1 7.99679 2.83634 36.2798
7725 1 1 7.39319 4.63952 2.01937
6986 1 1 7.07278 2.29036 0.807926
1208 1 1 7.71812 2.95566 0.128165
2103 1 1 9.61258 4.48687 1.69044
6657 1 1 10.3914 4.73133 0.733743
7783 1 1 8.9411 1.87425 36.6702
7250 1 1 10.9754 4.10109 1.23687
6463 1 1 12.017 5.63955 2.7606
505 1 1 10.9089 2.32755 0.787297
1380 1 1 11.5889 3.31587 0.818222
787 1 1 13.1266 1.8367 37.2178
500 1 1 12.6651 2.55347 1.80804
39 1 1 15.4579 2.55345 0.408669
7246 1 1 13.5513 3.1673 0.715884
2160 1 1 16.735 4.94867 0.861739
7950 1 1 18.33 4.9147 2.52516
6823 1 1 16.8913 3.01382 35.9839
554 1 1 18.4025 2.78365 37.3102
34 1 1 17.6065 5.09264 1.06422
479 1 1 2.47208 5.43507 0.992916
1885 1 1 3.85698 4.74414 0.720423
406 1 1 3.10008 4.61381 1.68256
1369 1 1 6.54991 6.50688 2.53621
7663 1 1 6.07653 4.86917 0.927357
497 1 1 7.10337 5.05611 0.62748
542 1 1 8.31147 7.07275 36.1143
228 1 1 7.35915 4.29164 36.5855
7010 1 1 9.85841 5.40353 1.58705
7611 1 1 11.6584 6.64097 2.16586
7422 1 1 10.8043 5.96185 1.79158
7468 1 1 14.5167 7.02978 0.799375
1109 1 1 14.6525 4.51922 37.3756
461 1 1 13.4029 6.05956 0.377394
7444 1 1 15.8979 6.04625 1.2913
1718 1 1 17.796 4.86269 37.6693
206 1 1 2.95291 6.56613 1.68607
323 1 1 5.83809 5.43434 37.4615
82 1 1 4.91764 6.87554 36.6817
835 1 1 3.35618 7.26905 2.35327
7803 1 1 5.59192 7.83542 0.144993
623 1 1 7.50832 7.14426 0.202679
796 1 1 6.40981 6.39108 1.30313
7002 1 1 8.79436 7.02981 2.41379
585 1 1 7.13193 7.10085 1.78692
7826 1 1 10.1158 7.96394 0.597047
7935 1 1 12.3478 7.46085 2.77181
6828 1 1 14.9301 4.33236 2.09761
7937 1 1 13.9487 7.68853 1.54175
308 1 1 15.4949 7.18872 2.60657
7758 1 1 17.0389 7.58656 1.34144
7432 1 1 16.4619 2.89942 0.935459
431 1 1 17.4024 7.94429 0.13492
6443 1 1 17.3749 5.02916 3.11501
118 1 1 18.3444 7.35591 0.63338
884 1 1 18.5211 7.40042 37.2715
1751 1 1 0.937558 7.67355 37.2122
7841 1 1 2.0373 8.50834 0.839163
15 1 1 4.92582 7.8432 1.09018
1314 1 1 2.35463 7.60081 2.0017
7879 1 1 4.24742 7.02819 0.38943
475 1 1 5.94006 7.53581 1.75486
7643 1 1 6.52813 7.42198 0.498078
7420 1 1 8.47301 7.37205 0.893528
7625 1 1 11.085 7.60976 2.07563
53 1 1 9.51566 8.61936 1.3549
304 1 1 9.23607 8.66386 36.5649
697 1 1 7.97809 8.5517 3.0039
188 1 1 12.1587 7.9451 0.927229
193 1 1 12.5716 7.17758 1.74745
557 1 1 13.4715 6.9536 2.75662
1942 1 1 16.1636 8.02829 2.158
205 1 1 15.4326 8.16213 0.506929
7845 1 1 0.389237 7.81518 1.89022
7641 1 1 16.5177 7.17579 37.0555
7795 1 1 18.3378 8.73318 0.615108
444 1 1 0.147711 9.64232 0.927819
1547 1 1 2.05537 8.99703 37.2021
997 1 1 2.71864 9.32003 0.701598
7322 1 1 5.07583 9.93737 1.84022
573 1 1 4.80568 10.6392 36.44
532 1 1 5.6663 8.43866 0.932898
1850 1 1 5.74808 9.86371 0.841467
615 1 1 8.45302 8.3838 1.36715
691 1 1 7.67849 11.3329 0.666747
7654 1 1 9.09227 9.46785 2.06878
6136 1 1 9.33732 9.56083 37.3487
7461 1 1 11.4438 9.86744 1.17097
498 1 1 13.6576 8.6005 1.07321
638 1 1 13.9711 9.68184 2.12395
519 1 1 15.1554 7.98196 1.80454
223 1 1 15.1508 10.0554 2.38979
538 1 1 16.368 8.10296 0.194514
165 1 1 16.844 8.46158 36.9368
190 1 1 18.3601 8.65431 1.91401
7867 1 1 17.6942 10.5846 0.497301
7897 1 1 3.54378 10.814 0.20728
138 1 1 2.73843 10.7013 0.86454
647 1 1 3.33973 11.6103 1.05363
7967 1 1 4.02589 9.58454 2.08588
1048 1 1 5.79945 10.3011 37.4322
773 1 1 7.09685 10.6797 1.06137
1820 1 1 6.78888 9.95932 37.1194
534 1 1 7.59499 10.8527 37.1705
973 1 1 12.4835 11.783 2.74774
699 1 1 9.02074 11.0587 2.94799
7891 1 1 9.47388 10.4514 0.577828
250 1 1 10.4648 10.457 0.270543
7452 1 1 13.714 9.46056 0.502372
6669 1 1 12.4858 8.81567 0.678395
1000 1 1 16.1125 9.70368 1.96887
6599 1 1 16.8563 12.305 1.43352
2234 1 1 15.1597 8.8989 37.2783
1040 1 1 17.3022 11.0433 36.885
7991 1 1 16.102 10.9095 36.6271
962 1 1 0.657408 12.7108 36.4703
1529 1 1 1.10755 12.2982 0.496325
6604 1 1 1.50725 11.7502 36.9639
203 1 1 4.39733 14.3373 1.01853
215 1 1 4.286 13.1328 1.74646
7376 1 1 5.42453 13.3807 0.994717
331 1 1 6.13901 11.1745 0.387056
1010 1 1 4.36249 11.6688 0.364906
530 1 1 6.41465 11.0177 36.7841
7402 1 1 6.94135 11.7779 0.197765
7864 1 1 8.86833 11.0741 37.5743
344 1 1 7.4002 11.9731 1.53643
993 1 1 10.6538 12.0646 0.747376
381 1 1 12.1938 12.635 2.23003
2062 1 1 12.2567 13.0781 3.24926
660 1 1 10.8533 13.9766 37.2752
261 1 1 12.7598 11.5522 37.636
6997 1 1 14.7654 9.75124 1.38958
6705 1 1 13.8659 11.985 1.20257
230 1 1 15.4837 10.9083 1.08714
7348 1 1 15.029 11.3324 37.2402
7022 1 1 16.2248 12.369 37.398
7470 1 1 17.4882 12.1571 37.3237
7479 1 1 18.8102 11.2519 36.6328
7888 1 1 17.5501 14.4524 0.0798977
78 1 1 17.3315 12.606 36.1875
6578 1 1 1.89695 12.9817 0.459696
1282 1 1 1.05836 14.588 37.1281
85 1 1 0.668228 15.1053 2.3588
2755 1 1 1.66219 14.1301 1.1876
340 1 1 2.68732 12.6002 35.6676
1136 1 1 3.35733 15.0611 37.0301
1411 1 1 4.46544 15.0702 37.1909
6411 1 1 4.18216 12.9524 37.5678
7487 1 1 5.38004 14.4611 1.56529
765 1 1 8.72375 12.279 37.0592
7464 1 1 8.63722 13.4591 2.65742
7545 1 1 9.16055 12.217 1.991
1178 1 1 9.74229 13.8634 0.339864
307 1 1 11.5642 14.6542 36.4571
7834 1 1 14.4388 14.4178 1.42139
769 1 1 15.9053 13.7143 0.821908
237 1 1 17.0497 13.1991 37.3033
234 1 1 17.4126 12.1359 2.67325
163 1 1 17.9291 14.2369 3.37675
7934 1 1 2.42466 16.7921 0.165243
7840 1 1 1.56784 14.7919 1.85938
7755 1 1 3.04467 14.1038 35.7137
813 1 1 5.30989 15.9048 0.30098
1729 1 1 5.84225 15.3513 1.00065
363 1 1 3.10502 16.0864 37.0656
7139 1 1 5.30679 14.6912 0.312713
7610 1 1 7.36245 14.6684 36.9234
1573 1 1 6.46929 16.0123 0.606224
7543 1 1 9.3958 15.078 1.94553
749 1 1 9.36587 15.6406 0.906147
1170 1 1 11.4824 15.5687 0.751377
7075 1 1 12.8335 13.6549 37.2992
6822 1 1 10.4468 15.7057 1.18505
7634 1 1 14.6894 16.6547 0.919151
1042 1 1 14.6391 15.8766 1.96164
6720 1 1 16.9535 14.3857 1.86308
7903 1 1 18.1075 17.5677 0.199419
7968 1 1 1.17648 16.9871 1.36644
6919 1 1 2.07942 16.1524 36.4116
7180 1 1 5.57521 16.7431 37.5389
7581 1 1 3.66233 17.8195 0.0332848
419 1 1 7.79172 16.3172 37.4439
7210 1 1 4.51149 17.0773 0.140853
7963 1 1 5.44947 15.2118 37.1916
1485 1 1 6.38768 16.1177 1.86411
428 1 1 5.74614 16.7498 1.07553
287 1 1 6.84294 17.6427 2.38338
8 1 1 6.55018 15.1922 37.4575
338 1 1 8.00943 14.772 0.139757
377 1 1 10.8743 14.6542 0.718639
7856 1 1 8.28442 15.6522 1.82418
7778 1 1 11.33 16.6306 0.808806
6535 1 1 13.5541 16.4543 0.445169
7898 1 1 14.903 16.1658 0.0977344
7341 1 1 13.4703 15.8418 36.1267
7913 1 1 15.9314 15.8455 0.241541
22 1 1 13.4715 15.9627 1.96515
7787 1 1 16.7625 16.3521 0.106304
5999 1 1 18.2661 16.0301 2.00553
7390 1 1 15.8149 17.7912 0.427391
2134 1 1 1.09457 1.05593 1.18908
314 1 1 0.108937 0.847678 0.257041
1146 1 1 1.15233 15.1092 1.07267
7081 1 1 1.52426 18.4973 1.31583
1327 1 1 3.35844 0.413482 1.49772
1895 1 1 3.89434 18.0468 1.18508
7212 1 1 2.52037 18.153 1.56789
397 1 1 1.9176 0.642565 3.18653
37 1 1 5.87557 16.6224 36.6327
1257 1 1 3.45827 17.1102 1.6819
456 1 1 6.2824 17.7033 0.39977
391 1 1 8.81198 17.1889 1.74542
7698 1 1 9.97896 17.8748 1.08867
141 1 1 9.46632 16.192 1.87098
7975 1 1 7.94513 16.4607 35.2971
700 1 1 9.81053 17.2366 2.30362
820 1 1 12.411 15.9656 1.04352
2661 1 1 12.7812 17.2445 0.0617064
437 1 1 12.181 0.39259 1.20077
2020 1 1 12.3109 0.654558 2.4312
7224 1 1 13.543 16.9926 36.8192
7838 1 1 13.305 17.9462 37.1805
7887 1 1 18.2668 17.3725 1.17256
785 1 1 18.0874 18.6598 1.15852
847 1 1 18.2657 1.53776 3.06744
1713 1 1 18.0691 2.17793 1.50492
7122 1 1 1.137 2.66063 2.59032
310 1 1 0.506291 0.877398 3.1962
727 1 1 1.74487 1.1753 4.63863
834 1 1 4.20608 0.28407 0.30345
105 1 1 5.64389 18.6727 1.89411
96 1 1 6.26295 0.712101 3.29839
1328 1 1 6.55712 18.412 3.01217
7535 1 1 6.53809 18.6427 4.5326
55 1 1 7.69531 0.549604 0.423862
1381 1 1 7.5903 0.367061 1.75095
2150 1 1 11.505 18.5723 2.25935
1336 1 1 12.319 2.18161 2.69404
1213 1 1 12.7394 3.16317 2.77834
7478 1 1 11.5331 1.83166 3.56713
2153 1 1 15.0694 0.713256 3.5911
382 1 1 14.5622 0.567728 2.82518
7844 1 1 13.6079 1.03902 2.83757
7293 1 1 17.0915 18.6334 2.0239
7647 1 1 17.8887 0.79049 4.09452
398 1 1 16.8246 2.22639 36.6849
1451 1 1 1.60288 2.52685 4.91481
1239 1 1 2.59105 2.78559 1.03712
2681 1 1 2.05356 1.7546 3.81834
603 1 1 3.30469 2.0813 3.70941
62 1 1 3.4103 3.08233 3.16976
7585 1 1 4.71028 0.659709 1.77323
94 1 1 6.77853 0.886774 2.29268
1168 1 1 5.95855 1.7317 3.54158
376 1 1 7.54038 4.17503 0.0831526
528 1 1 8.15528 1.87115 2.08329
496 1 1 9.32075 0.830474 2.102
824 1 1 9.57634 2.26074 4.29272
1333 1 1 9.37304 2.28489 1.50054
464 1 1 9.48988 3.49469 1.90768
7855 1 1 13.9934 2.36327 1.75899
6956 1 1 17.0613 1.84162 0.600211
1634 1 1 17.2896 2.15714 2.72685
1540 1 1 16.4265 2.12867 1.65716
430 1 1 0.296741 2.22629 3.45749
151 1 1 18.1342 3.21503 3.93613
155 1 1 0.897915 4.53892 2.06961
7366 1 1 2.1549 3.78725 0.0377138
412 1 1 1.81285 3.7002 2.51336
324 1 1 1.92385 2.29882 0.0515366
2365 1 1 2.84285 4.74548 3.38267
547 1 1 2.02779 2.89809 3.22896
6648 1 1 2.60682 3.7153 1.74056
7532 1 1 5.44104 1.8757 2.2938
1373 1 1 4.30371 1.7261 2.29262
1339 1 1 7.9671 3.62035 3.1914
239 1 1 7.46982 2.50523 3.02451
1308 1 1 8.5328 3.21232 4.06864
587 1 1 9.36664 3.99134 3.69657
7821 1 1 11.3671 3.1064 1.85373
1076 1 1 8.85484 5.14769 3.23685
2232 1 1 12.189 4.27395 1.89284
537 1 1 13.8698 3.21591 3.49483
446 1 1 13.0857 3.69715 1.55192
1020 1 1 15.9789 2.38167 2.91526
7776 1 1 14.2075 3.57777 1.76247
591 1 1 15.7187 3.52705 2.87146
780 1 1 15.048 2.79069 4.81135
651 1 1 17.0814 2.92446 3.823
7440 1 1 17.786 4.20952 1.70621
1636 1 1 17.0793 3.03273 2.19885
68 1 1 18.6343 2.90885 1.64349
47 1 1 17.5464 3.06134 1.37016
580 1 1 1.36549 5.44606 2.88667
440 1 1 3.57049 5.91914 2.30622
6995 1 1 4.29309 4.46144 1.96867
7280 1 1 1.95236 6.22373 37.0708
7413 1 1 5.4264 3.00554 1.65282
7823 1 1 6.07769 4.56751 2.89223
1379 1 1 8.82006 5.03985 1.55374
6659 1 1 8.23988 4.81131 3.99961
1045 1 1 9.44687 6.49467 1.56612
91 1 1 10.1607 5.57553 3.23307
173 1 1 10.7332 3.83387 4.3004
581 1 1 11.9395 5.48339 1.5991
1377 1 1 13.3263 4.49467 3.24789
1670 1 1 14.1284 3.97892 4.14504
958 1 1 14.4973 4.78305 3.22693
874 1 1 16.3528 4.54104 2.04871
924 1 1 0.590551 6.07581 2.57905
1158 1 1 1.36724 5.1942 1.56203
966 1 1 1.72851 6.23401 1.70008
983 1 1 3.77579 6.80147 3.39632
7028 1 1 4.00002 5.42397 3.13207
7944 1 1 3.21455 5.37944 0.279375
568 1 1 4.58576 5.98549 1.86132
488 1 1 8.21004 5.77878 2.15737
1287 1 1 5.12748 7.40354 2.55427
1051 1 1 7.95424 6.681 2.8683
1330 1 1 9.24778 5.9894 2.81073
231 1 1 10.0552 7.15699 2.23253
1262 1 1 10.3852 6.65891 0.774091
107 1 1 14.294 5.21686 0.305348
934 1 1 13.7162 6.36556 1.88116
7756 1 1 12.5637 6.05126 3.53734
1478 1 1 13.814 6.97322 3.68517
6316 1 1 13.5019 5.97402 4.35222
2432 1 1 15.072 6.33012 2.09418
1265 1 1 18.6877 6.79102 1.53368
956 1 1 16.0984 6.45443 0.277718
81 1 1 18.593 5.73371 4.3584
560 1 1 18.6401 7.42087 4.75914
928 1 1 0.922333 6.894 1.90843
959 1 1 18.5285 7.71334 2.72379
2110 1 1 0.817617 7.27933 0.700514
98 1 1 2.48606 6.85238 2.93324
1766 1 1 2.87355 7.37914 0.898792
1409 1 1 3.82087 8.2292 1.89669
7921 1 1 4.72762 6.94219 1.5418
541 1 1 6.22442 8.26298 2.78259
153 1 1 6.86856 9.36957 2.41983
1001 1 1 6.23014 9.35903 3.92624
241 1 1 9.38129 9.13071 3.56877
6627 1 1 9.66976 7.7456 3.29652
281 1 1 12.1456 8.37515 2.59984
1044 1 1 11.2915 6.02387 3.77757
1863 1 1 15.6821 8.74766 3.94603
7428 1 1 13.0269 7.81519 3.38999
944 1 1 13.8017 9.19232 3.23327
2197 1 1 13.7085 8.21879 2.60208
144 1 1 16.1453 6.481 2.45499
536 1 1 16.6436 8.45587 3.09475
271 1 1 14.4097 7.24635 2.63969
1441 1 1 15.4455 8.07677 3.08942
1473 1 1 15.5375 5.68645 3.11215
6875 1 1 17.3653 7.97948 2.35202
238 1 1 17.6912 8.0156 3.59472
7308 1 1 16.6169 7.10229 3.2657
1318 1 1 0.785877 8.9759 0.43283
200 1 1 0.940903 9.65712 1.61078
1113 1 1 1.35844 7.83135 1.91765
478 1 1 3.10982 9.11518 2.18973
404 1 1 2.65568 9.46309 4.04794
114 1 1 1.39196 10.5381 2.53386
158 1 1 4.63257 8.97299 1.1763
222 1 1 2.17352 10.0463 1.39828
7482 1 1 4.17856 10.4729 2.61635
7791 1 1 3.89724 9.08587 3.6094
1450 1 1 6.1888 10.372 1.7321
7335 1 1 8.02276 10.432 1.66817
1532 1 1 7.41632 9.54773 3.76068
1906 1 1 9.72215 10.2414 2.5128
2065 1 1 6.99486 9.72463 1.53151
586 1 1 8.76904 11.7993 0.875405
7538 1 1 10.7589 11.4953 3.13649
1790 1 1 9.80504 9.01165 0.431398
7829 1 1 11.2334 10.0399 3.23828
6864 1 1 11.1576 10.6722 1.97027
610 1 1 10.6944 9.19779 2.06638
1070 1 1 12.1671 9.03441 1.7619
618 1 1 12.7393 9.28595 3.71599
602 1 1 14.7933 8.91983 2.24712
1068 1 1 16.5406 9.35428 0.106799
1033 1 1 17.563 9.53658 0.486656
84 1 1 0.29683 10.4631 2.6121
2154 1 1 18.5336 10.7194 1.18012
1360 1 1 18.4301 11.6012 0.354391
1003 1 1 2.36337 10.2565 2.82304
6563 1 1 2.24872 11.6961 3.7828
757 1 1 0.826874 10.9832 1.74928
1005 1 1 2.25347 13.9842 2.12007
1337 1 1 3.8757 11.6443 2.63215
1093 1 1 4.63617 10.8138 1.76835
571 1 1 5.76755 9.82332 2.54279
627 1 1 4.75028 10.9591 3.22361
1163 1 1 5.48325 12.2286 3.03831
1417 1 1 6.95028 12.8871 1.91655
1072 1 1 11.0001 10.8599 4.26729
1542 1 1 8.2785 12.4529 2.64129
2017 1 1 13.047 9.53598 1.32001
379 1 1 12.7218 12.0636 1.01837
574 1 1 13.5926 11.5334 2.76064
276 1 1 14.159 10.6547 1.00075
790 1 1 15.6885 11.0831 3.33391
7798 1 1 14.117 10.6298 4.72842
1631 1 1 16.1144 8.85758 1.09717
7474 1 1 17.6038 11.2801 1.29655
7249 1 1 0.0560739 11.7426 1.61694
7451 1 1 0.154709 10.5647 0.0641726
7525 1 1 1.03715 13.2794 2.06669
590 1 1 2.20234 10.9985 1.78105
7805 1 1 2.01807 12.5217 1.51932
7576 1 1 5.89095 11.5078 1.83019
374 1 1 5.87993 12.6285 1.91649
1061 1 1 6.32418 12.7834 4.05325
345 1 1 6.19519 12.1657 1.09148
970 1 1 6.61742 12.0885 2.39452
286 1 1 9.11486 14.447 3.24696
7851 1 1 11.9937 11.479 1.81234
872 1 1 13.281 12.264 2.05875
7858 1 1 15.5755 13.551 1.91709
1193 1 1 13.4086 10.851 1.68366
669 1 1 16.0301 12.596 2.70914
285 1 1 14.4093 10.984 2.0818
4 1 1 16.3616 14.2324 37.3221
877 1 1 18.2665 13.1375 3.94785
1120 1 1 16.915 11.3005 2.26484
1116 1 1 18.2024 12.7584 0.49724
7849 1 1 16.8659 13.3909 1.02005
2037 1 1 1.24789 16.5712 0.217261
724 1 1 1.46351 12.2827 3.32712
154 1 1 5.2546 15.4391 2.14423
7503 1 1 6.506 13.9153 2.5801
7004 1 1 8.58088 12.9646 0.543946
687 1 1 4.90584 16.2074 4.58281
64 1 1 7.06982 12.9827 0.97061
1210 1 1 8.12261 13.7217 1.65532
256 1 1 10.6553 14.6865 3.04402
7436 1 1 10.521 16.917 3.08606
7489 1 1 11.3121 13.6724 0.446724
7550 1 1 11.3595 13.5411 2.23349
1537 1 1 12.9197 12.0005 3.61281
1107 1 1 15.0042 13.5188 2.75131
7052 1 1 15.8531 13.6993 3.2039
7993 1 1 16.2023 14.8245 3.24086
6750 1 1 16.4913 16.0267 2.78887
265 1 1 17.3371 12.5734 3.79179
6674 1 1 0.21486 14.1497 4.932
8000 1 1 3.58968 14.5544 1.83639
688 1 1 0.279171 13.6381 1.11115
1446 1 1 3.50224 15.3901 0.569052
1638 1 1 4.02114 15.3837 2.60701
1082 1 1 4.47197 15.6285 1.49549
336 1 1 3.23786 12.4819 2.65795
7613 1 1 5.89662 15.7239 2.76166
7562 1 1 7.56703 13.2557 2.78258
584 1 1 7.50951 13.9183 0.58253
277 1 1 6.23928 14.2926 0.361251
1226 1 1 10.4028 15.6986 3.53391
411 1 1 10.4315 14.6422 1.64725
1706 1 1 12.5329 14.4396 3.10641
227 1 1 11.5215 15.5419 1.78766
7230 1 1 13.8498 15.2987 3.09015
425 1 1 13.1138 13.6513 1.01382
6832 1 1 14.5367 14.4982 3.05654
375 1 1 16.2374 16.2427 1.52283
465 1 1 15.4572 16.4631 2.20798
7811 1 1 17.9574 14.8745 1.29329
6824 1 1 17.1804 15.4479 1.64176
2367 1 1 18.109 14.9696 2.34176
1173 1 1 2.95179 16.7689 2.69905
7188 1 1 17.3874 16.4739 2.41487
643 1 1 0.556347 14.0919 2.72962
7957 1 1 1.58588 15.9536 3.96527
7561 1 1 2.8054 15.6661 1.95037
795 1 1 4.55874 17.4607 2.28415
1453 1 1 4.91671 16.5785 1.76675
1908 1 1 6.3238 14.0204 1.41345
1047 1 1 8.36754 16.1017 0.71584
937 1 1 7.40308 17.4363 1.23716
841 1 1 8.72076 16.9475 2.78501
7984 1 1 8.40643 14.861 1.05253
1064 1 1 10.2496 15.6535 2.25367
1143 1 1 12.914 17.0645 1.37176
7620 1 1 13.332 14.3364 2.13843
31 1 1 14.0062 17.6942 1.8255
501 1 1 13.9837 16.3268 2.78723
7779 1 1 12.3083 16.2714 2.01842
7040 1 1 15.1375 16.269 3.33958
1590 1 1 16.4972 17.5411 2.00937
3499 1 1 15.9596 17.2741 2.84498
6905 1 1 16.6599 16.4708 3.71794
40 1 1 0.244295 17.2674 1.80484
809 1 1 1.47025 17.7712 2.03532
1086 1 1 2.17444 15.9314 2.71934
325 1 1 3.3541 15.5429 3.33892
682 1 1 2.83739 17.7117 3.20447
7119 1 1 4.9419 17.9865 1.39407
43 1 1 5.77985 17.5528 1.96261
2026 1 1 7.68314 18.2031 0.34454
814 1 1 9.83636 1.35035 1.33906
7508 1 1 10.1082 18.7808 1.8923
7349 1 1 10.0525 17.4822 0.187652
781 1 1 10.962 16.3615 2.24736
6027 1 1 11.7778 17.3419 1.63028
1229 1 1 15.2239 18.4881 2.2451
708 1 1 12.0962 18.173 0.969611
2038 1 1 15.0286 17.4225 1.93269
33 1 1 17.4615 18.0014 2.80621
1200 1 1 18.138 17.3767 2.97749
845 1 1 0.633035 18.5842 3.95955
1930 1 1 2.83405 0.882658 4.19972
480 1 1 3.7757 0.986812 2.53248
1514 1 1 3.289 0.796631 5.0174
1461 1 1 4.61648 0.560022 4.73793
7926 1 1 6.54158 17.1142 3.68319
605 1 1 7.56482 18.4295 3.45311
1687 1 1 8.53349 0.300858 3.22643
7745 1 1 10.5468 18.2985 2.97106
7580 1 1 13.5898 1.00627 5.59015
7656 1 1 11.589 16.8819 4.00685
1270 1 1 15.0775 18.6022 3.89426
7 1 1 15.9906 18.3925 3.06243
7601 1 1 18.2624 18.6732 3.39304
109 1 1 0.64186 3.30267 5.09803
7848 1 1 1.92786 1.44387 5.79676
1205 1 1 0.56225 2.00105 5.25584
799 1 1 3.93683 3.99995 3.27095
7896 1 1 3.85217 0.936997 3.99024
450 1 1 5.68133 0.506726 3.99223
7715 1 1 7.13357 0.844051 6.37082
1331 1 1 7.11172 3.6429 2.34772
7700 1 1 9.15943 18.1076 2.05143
7785 1 1 8.49922 2.65371 2.91464
7616 1 1 10.5805 1.8493 2.17358
385 1 1 9.48943 1.84454 2.6791
890 1 1 10.9638 0.932845 3.53775
149 1 1 12.838 18.445 3.95278
576 1 1 12.9662 0.709795 3.8289
1992 1 1 14.0434 1.19226 3.8306
1785 1 1 14.4237 1.34071 1.81611
946 1 1 15.6608 1.72412 4.30223
1037 1 1 14.8657 2.82137 1.16349
1203 1 1 13.3937 1.48519 4.63339
2099 1 1 16.4237 1.83631 3.61622
525 1 1 17.0904 0.982814 3.35388
7914 1 1 17.471 3.45242 5.30679
283 1 1 17.4924 0.384704 5.01931
1602 1 1 2.39793 2.80433 5.75304
139 1 1 0.699207 4.79356 4.33371
1194 1 1 3.08623 4.71278 4.4924
729 1 1 2.00029 4.1864 4.25609
7996 1 1 4.88213 1.56559 4.00583
656 1 1 4.39727 4.13508 4.30903
2046 1 1 4.20684 2.34154 3.45445
611 1 1 5.48196 3.8624 2.48672
209 1 1 7.60767 3.7147 4.11055
936 1 1 4.82301 3.40493 3.30932
1776 1 1 7.15931 1.77104 3.96498
887 1 1 8.2303 2.14801 4.10865
1378 1 1 8.96184 3.70809 5.17402
1416 1 1 10.9657 3.58936 2.57872
1344 1 1 11.128 0.972978 4.57458
906 1 1 13.8598 2.19318 2.92957
7827 1 1 13.97 2.64521 4.2771
2323 1 1 17.7153 2.07676 3.90889
2471 1 1 17.8871 1.53628 4.70281
552 1 1 0.360307 3.21438 2.83541
745 1 1 18.166 3.16997 2.88075
2071 1 1 0.241876 4.66838 3.29646
1717 1 1 1.40845 5.74568 4.63507
1202 1 1 2.29647 5.54801 3.55935
7754 1 1 4.22583 3.37247 2.31458
7648 1 1 4.68574 4.68022 3.49942
1376 1 1 5.52256 3.46689 4.56824
604 1 1 3.12865 5.7235 5.25002
566 1 1 7.0162 4.49637 3.1757
2348 1 1 6.13734 4.81324 4.49714
1466 1 1 6.75032 5.45828 1.72524
2126 1 1 9.70719 3.31511 4.57575
156 1 1 10.4185 4.20394 5.14106
469 1 1 10.9159 4.98537 3.73572
636 1 1 14.8783 2.83213 2.49901
387 1 1 13.3401 4.84919 4.21227
6762 1 1 14.7445 5.37717 1.49615
1231 1 1 16.7142 3.92188 2.92077
6804 1 1 17.6433 4.03549 3.50325
2357 1 1 16.3746 5.34433 2.90514
913 1 1 1.63099 6.33636 3.66652
1316 1 1 0.339741 6.06646 5.15762
912 1 1 4.78525 6.47214 4.12092
6975 1 1 1.7459 4.44437 3.29177
1802 1 1 4.03434 5.2669 4.54034
454 1 1 7.54827 5.49672 3.60908
358 1 1 6.12476 6.84551 3.42225
7096 1 1 8.7667 6.22002 3.60438
582 1 1 10.9778 4.39635 6.17449
7904 1 1 9.84413 7.27334 4.05217
1759 1 1 11.6085 8.87525 3.43351
401 1 1 13.2662 6.004 5.31086
908 1 1 14.4294 5.97629 4.84612
1793 1 1 17.6587 6.352 2.82899
1709 1 1 17.4433 6.31097 3.96332
7228 1 1 17.6344 5.2199 5.41789
752 1 1 17.4212 7.52063 5.12068
481 1 1 18.532 5.74439 3.07799
1399 1 1 0.47034 6.79779 3.88554
1443 1 1 2.43843 6.46327 4.29324
45 1 1 4.01753 7.98624 3.73788
996 1 1 1.88395 7.38216 3.6927
7651 1 1 3.07659 6.03895 6.97218
1405 1 1 5.22203 7.46104 4.43443
661 1 1 5.83427 5.74195 2.97072
177 1 1 7.66098 8.14816 3.9989
1301 1 1 7.23167 8.17118 1.9694
1609 1 1 7.1944 6.3618 4.66403
462 1 1 6.89173 7.95602 5.11306
7743 1 1 9.74463 6.01979 4.39576
74 1 1 9.89912 8.18521 4.1488
551 1 1 10.5408 7.13498 4.82976
1822 1 1 11.6413 8.51686 5.34294
556 1 1 14.3047 8.18837 3.6357
1939 1 1 14.9246 7.66642 5.89676
2594 1 1 14.8029 6.84345 4.3113
1728 1 1 17.7695 9.9089 1.58107
1396 1 1 16.8193 5.94559 6.63511
1128 1 1 0.872622 9.77984 3.3827
175 1 1 3.87513 7.89 0.834484
1419 1 1 2.43901 9.23116 5.60725
925 1 1 4.17748 10.1346 4.15582
1475 1 1 3.4006 8.52199 4.78561
896 1 1 3.61436 10.8894 4.85731
7862 1 1 4.99862 8.76092 2.36902
7953 1 1 7.13844 10.3713 3.27391
955 1 1 8.50343 10.0016 2.99303
1217 1 1 8.06359 10.4308 3.79638
7334 1 1 8.56587 8.771 6.20267
232 1 1 10.025 10.6129 3.58644
1833 1 1 10.4046 8.55562 3.15409
253 1 1 14.058 8.90456 4.6215
600 1 1 14.8729 9.18146 3.66649
1422 1 1 13.9874 10.6878 3.4023
108 1 1 14.946 10.4594 3.8514
1498 1 1 13.2431 8.89521 2.0822
1715 1 1 15.8405 9.31061 3.16477
914 1 1 16.4303 7.31238 4.54843
146 1 1 17.4138 11.3956 4.48395
1350 1 1 16.6119 9.97427 2.89085
7397 1 1 16.4415 10.0023 4.03681
1798 1 1 17.8835 8.26233 6.06002
1637 1 1 17.2938 9.36213 2.41123
6972 1 1 1.57802 9.06168 2.41109
1878 1 1 1.17883 10.9278 3.42852
393 1 1 2.93899 12.4625 4.08945
6683 1 1 3.21614 10.3816 3.38926
201 1 1 3.80008 12.8436 3.62463
1427 1 1 4.73928 9.69509 2.9303
1135 1 1 6.40398 11.1027 3.7309
1177 1 1 6.83895 8.69162 4.28263
825 1 1 6.18579 11.0751 2.80019
3250 1 1 8.07214 11.175 2.51044
1112 1 1 9.18419 10.405 4.31965
622 1 1 12.6438 10.4119 3.89857
1825 1 1 9.28763 10.8458 1.62818
526 1 1 11.8414 9.41393 4.27531
2244 1 1 12.7521 10.846 2.92181
162 1 1 14.7037 11.5562 3.79275
1676 1 1 13.9488 12.7274 4.51447
1827 1 1 14.6882 9.87958 5.66333
960 1 1 15.4107 12.0721 4.42339
7603 1 1 0.147482 10.4147 4.08047
648 1 1 0.774391 12.4279 1.45436
715 1 1 17.6898 10.4128 2.94076
967 1 1 0.556257 13.3683 4.3286
1486 1 1 2.59311 10.51 4.54642
52 1 1 3.5917 14.5034 3.47228
690 1 1 5.73158 11.0601 4.38729
216 1 1 3.90979 11.3166 3.74809
2215 1 1 8.67161 15.0268 4.29448
290 1 1 6.50222 12.8045 2.95558
1175 1 1 8.75386 11.4688 4.74219
1069 1 1 8.57679 10.5435 6.44116
1046 1 1 8.28523 11.6621 3.54701
678 1 1 12.7517 11.2273 5.2542
1757 1 1 13.9489 12.8516 3.45852
683 1 1 15.0386 12.3158 3.27504
235 1 1 16.6014 12.0413 4.75676
7350 1 1 15.8789 14.7766 1.61769
306 1 1 17.0374 13.6673 3.39405
7480 1 1 16.9851 14.375 4.95091
629 1 1 17.0744 14.6703 3.89339
300 1 1 18.6666 12.4068 2.98267
712 1 1 18.2357 14.642 4.55275
1078 1 1 1.53981 13.5499 6.14299
7403 1 1 4.59552 12.7952 2.86274
6379 1 1 5.39892 13.5051 2.30236
1504 1 1 5.22052 12.58 4.31418
815 1 1 4.91798 14.6952 2.89563
6979 1 1 5.26272 15.1897 3.58348
1512 1 1 7.0789 11.0592 1.99796
2425 1 1 8.15737 14.0226 3.39288
1139 1 1 9.81895 14.8788 4.33998
468 1 1 8.72623 15.7921 4.93694
1912 1 1 7.77844 14.77 1.80914
572 1 1 9.87732 13.3682 2.03966
1533 1 1 11.621 14.6318 2.55327
1187 1 1 11.515 14.1301 3.84772
7853 1 1 14.3926 12.7241 2.49947
7893 1 1 12.9589 14.3327 5.37331
670 1 1 17.4381 15.7498 3.37918
1958 1 1 1.57534 13.4811 3.46014
844 1 1 1.24686 13.0309 4.95333
853 1 1 0.109052 14.0288 3.72688
1561 1 1 2.91179 13.6391 2.99565
663 1 1 2.78726 12.9553 5.09526
1531 1 1 4.25413 15.3698 3.69753
902 1 1 4.07002 16.3533 2.48705
1266 1 1 5.93723 13.9586 3.80651
734 1 1 6.89025 14.8613 1.21421
1545 1 1 7.54536 14.8419 2.91045
317 1 1 11.0892 15.3769 4.50816
460 1 1 11.5215 16.1457 3.30729
7704 1 1 13.3801 13.791 2.98314
7146 1 1 14.8235 12.3366 5.26141
990 1 1 16.6815 15.4616 4.56342
443 1 1 18.5772 14.9929 3.66445
1087 1 1 15.8959 15.6851 3.81405
1526 1 1 0.855843 15.4315 3.22689
1689 1 1 0.610283 16.3845 2.59036
812 1 1 18.6276 17.9048 3.92217
1198 1 1 1.9833 17.0498 3.2824
800 1 1 2.33569 15.5523 4.55792
816 1 1 0.573382 17.8479 3.09487
861 1 1 2.48819 15.0443 3.69168
860 1 1 3.83086 18.4372 3.12735
1179 1 1 3.95635 16.4317 4.26226
7123 1 1 4.99921 18.5636 3.43073
2824 1 1 5.4645 16.902 2.66332
7627 1 1 9.5689 16.2918 4.62848
504 1 1 8.26743 16.1543 3.35
260 1 1 6.70897 16.2105 3.12401
384 1 1 9.24901 15.5025 2.96743
423 1 1 12.2524 18.5617 3.01797
1579 1 1 11.9185 13.3416 4.28935
1541 1 1 10.2203 16.4875 5.46214
7990 1 1 13.3914 15.6451 4.9912
818 1 1 12.1531 17.4446 3.07173
7911 1 1 14.3335 18.2013 2.93106
7635 1 1 15.5048 15.3847 2.87772
1474 1 1 15.721 16.765 4.08641
1406 1 1 16.5737 17.8092 5.10487
278 1 1 17.8064 17.4925 5.33772
1149 1 1 18.0451 16.135 4.87094
843 1 1 0.41459 0.336154 1.09915
1569 1 1 1.09777 0.00664855 2.15784
686 1 1 2.36926 17.2934 4.24258
728 1 1 1.94391 18.5841 3.78316
1140 1 1 2.8108 16.4887 3.66197
115 1 1 4.38896 18.4945 2.10874
1932 1 1 5.44243 18.2211 4.58804
888 1 1 3.39496 17.468 4.53913
293 1 1 5.79527 16.1672 4.01178
171 1 1 7.92026 16.5743 2.31535
7619 1 1 8.68588 0.120267 1.2237
1131 1 1 9.63962 17.0381 3.74383
1133 1 1 11.1784 17.5054 2.6518
421 1 1 11.3995 18.1494 4.14363
224 1 1 10.9599 18.016 1.545
390 1 1 9.91626 18.6204 5.39218
7987 1 1 13.4573 18.7949 2.62905
7938 1 1 11.9856 0.276823 4.55373
7149 1 1 13.3641 16.9345 3.34438
948 1 1 13.0467 0.358486 4.85899
427 1 1 16.4339 17.9186 3.82991
822 1 1 17.1137 18.7791 3.39075
1554 1 1 0.159888 17.9106 6.06415
328 1 1 17.9138 0.523402 2.41564
915 1 1 3.25727 18.6529 3.97614
7197 1 1 2.62983 18.4821 4.74263
1643 1 1 1.21916 0.468408 5.4859
2285 1 1 4.17564 18.2095 4.48998
1488 1 1 6.33215 1.10174 4.35134
767 1 1 4.69423 18.1973 5.53633
248 1 1 5.99077 18.1653 5.94857
7678 1 1 7.83742 18.0977 1.92092
7524 1 1 6.14108 0.376119 6.38138
2140 1 1 6.86162 0.562106 5.09718
41 1 1 6.96416 18.7219 6.02574
14 1 1 8.59024 1.0371 6.25365
6673 1 1 9.80524 18.0778 4.31803
1582 1 1 9.1746 1.14593 4.11895
947 1 1 9.06723 2.80466 6.6162
671 1 1 10.9377 0.45095 6.09637
2109 1 1 13.4928 18.0965 5.04353
7549 1 1 14.6901 0.784132 4.99547
1999 1 1 16.4221 0.33071 4.17939
3146 1 1 16.3824 1.45859 5.14741
1591 1 1 17.4437 1.19138 5.62164
558 1 1 16.9387 1.21636 4.35227
869 1 1 17.0612 18.7943 6.02996
867 1 1 0.954575 2.67408 5.94742
1319 1 1 2.31836 18.0281 6.45334
1129 1 1 3.19822 3.59244 4.68331
1197 1 1 3.57684 2.73116 5.50469
6767 1 1 5.81372 3.18216 3.63324
1675 1 1 5.43626 0.17006 5.5385
2136 1 1 6.11817 1.08513 5.42594
104 1 1 5.39935 1.40031 6.32169
885 1 1 7.26101 0.590651 3.90724
7762 1 1 8.41247 2.15689 6.10491
7997 1 1 9.18956 2.55753 5.46717
3337 1 1 8.04715 1.22486 4.83291
1658 1 1 10.1916 0.626543 4.3899
7989 1 1 10.9188 0.0940428 5.14608
616 1 1 11.9182 0.528926 6.04912
32 1 1 13.7666 2.12003 5.42686
859 1 1 14.2221 2.04776 6.27966
1345 1 1 15.4779 0.115138 4.90973
2392 1 1 16.4648 3.10369 6.52215
7044 1 1 16.1023 2.64463 4.99455
157 1 1 16.358 2.28272 5.83571
1223 1 1 18.7288 1.4554 3.96761
119 1 1 17.0323 1.66868 6.58828
509 1 1 18.3802 2.39618 4.81216
792 1 1 1.73497 3.57001 5.41318
1325 1 1 3.45518 3.7683 5.68595
910 1 1 2.99444 3.27987 6.5605
441 1 1 3.6502 4.86143 5.73412
951 1 1 4.04658 3.13539 4.16873
1608 1 1 3.22191 4.11475 7.84561
2208 1 1 6.71825 3.703 4.62819
455 1 1 6.81147 4.69726 5.97681
1375 1 1 7.46078 3.38197 5.20097
1255 1 1 6.79688 3.45817 3.35487
588 1 1 5.56146 2.39219 6.30782
2094 1 1 8.15703 2.65188 5.1263
593 1 1 10.5295 2.82537 3.96473
1749 1 1 10.2233 3.16542 5.47864
511 1 1 13.1903 2.25353 3.72964
180 1 1 12.5268 2.95418 4.35775
140 1 1 11.4743 4.17369 3.1901
1317 1 1 12.3172 1.70995 4.42276
1309 1 1 11.4494 3.59662 5.22037
850 1 1 13.168 3.63483 4.76906
870 1 1 13.9542 3.04713 5.39259
7712 1 1 15.4741 4.00304 6.40625
1413 1 1 16.6904 4.43194 5.5298
1338 1 1 18.1946 4.84781 4.27802
486 1 1 18.5759 3.37224 5.56332
954 1 1 1.09184 2.95507 3.82791
756 1 1 0.415513 4.99141 6.34331
2558 1 1 18.1934 3.33869 6.48123
1543 1 1 2.28459 5.19893 4.7425
1538 1 1 0.456775 6.82546 6.28639
1355 1 1 5.28159 4.48405 5.21432
1852 1 1 4.43601 3.52704 5.7131
7843 1 1 6.50012 5.4493 5.17545
1299 1 1 7.34534 6.018 6.85988
252 1 1 8.84682 4.64824 7.8641
1098 1 1 8.74761 5.0189 4.97068
2139 1 1 11.2716 3.44197 6.3875
211 1 1 9.2918 4.07643 6.27277
1039 1 1 11.7655 4.13955 4.43859