ITEM: TIMESTEP
3800
ITEM: NUMBER OF ATOMS
8000
ITEM: BOX BOUNDS pp pp pp
0.0000000000000000e+00 1.8820720577620570e+01
0.0000000000000000e+00 1.8820720577620570e+01
0.0000000000000000e+00 3.7641441155241139e+01
ITEM: ATOMS id mass type x y z
7930 1 1 17.4856 1.58108 2.23276
148 1 1 0.00511393 2.84519 2.30884
445 1 1 3.5702 1.57693 1.07648
7604 1 1 1.36165 1.99694 1.65569
194 1 1 0.0407728 0.60812 36.5921
350 1 1 7.30305 1.0736 37.0076
249 1 1 5.2623 1.67852 0.0389133
7964 1 1 5.96898 1.40107 1.13954
1206 1 1 8.43876 1.20146 36.9664
487 1 1 4.65056 0.379223 3.2223
7416 1 1 7.01086 2.61107 35.0711
6017 1 1 9.51102 0.42718 0.696438
7680 1 1 8.30187 0.400638 34.0638
1196 1 1 6.99393 1.46281 36.1067
343 1 1 12.9757 18.1273 37.5106
7994 1 1 10.2055 0.0512704 1.4675
6399 1 1 14.4775 16.4918 0.972029
7547 1 1 16.2343 18.7202 36.8921
383 1 1 16.7123 0.746461 2.94872
432 1 1 15.4502 17.9192 37.2128
7265 1 1 0.660602 0.1618 1.45912
1964 1 1 16.1396 16.9798 0.0631634
420 1 1 16.533 0.746451 37.4314
18 1 1 18.5033 3.08466 1.10315
7690 1 1 0.737893 2.61566 1.14448
402 1 1 2.35952 1.63367 0.170204
399 1 1 2.68429 0.844607 2.69939
7919 1 1 7.93911 2.76827 1.02001
6851 1 1 8.02232 1.25919 1.77867
7267 1 1 6.47495 0.870281 0.0153483
886 1 1 9.34822 3.59718 2.00253
527 1 1 6.04873 3.71648 1.45999
529 1 1 10.1308 3.09501 1.50335
6703 1 1 9.97757 2.0551 0.925666
7287 1 1 12.6271 2.04277 2.59137
356 1 1 14.8616 1.46221 36.3132
6617 1 1 9.43891 17.0979 36.4198
1269 1 1 14.9628 0.0881296 0.0491442
1110 1 1 16.1342 18.5366 0.65492
508 1 1 18.0365 2.61944 -0.0389408
73 1 1 14.8343 4.90439 37.2471
7972 1 1 18.3155 5.35654 0.0680234
75 1 1 17.9326 4.11979 0.959239
6152 1 1 3.25901 5.49919 1.29981
219 1 1 1.43084 4.96636 0.0273532
7236 1 1 1.39616 2.47694 37.477
7661 1 1 4.34385 5.18968 3.96855
7284 1 1 4.85608 2.70412 1.68617
5739 1 1 7.21114 5.19702 2.79471
7261 1 1 1.09813 2.85824 2.34465
3 1 1 5.92833 2.4641 37.5581
7251 1 1 4.02963 4.65159 1.83074
7300 1 1 7.23913 3.53938 1.61597
7660 1 1 7.07818 1.863 0.103769
7725 1 1 7.63242 2.9827 2.41412
6986 1 1 6.92414 2.37883 2.81956
1208 1 1 9.35724 2.0747 0.0208334
2103 1 1 9.05609 5.84755 1.41173
6657 1 1 9.43164 4.77248 0.538247
7783 1 1 8.57171 1.33806 35.6785
7250 1 1 12.2028 3.71258 2.45603
6463 1 1 12.5603 5.25707 4.41173
505 1 1 10.2718 2.24893 2.20361
1380 1 1 11.9908 2.93925 0.317036
787 1 1 15.1101 1.37374 37.3399
500 1 1 13.1234 4.6658 37.0427
39 1 1 15.9126 1.97732 37.1324
7246 1 1 13.2266 4.34505 1.78381
2160 1 1 16.2616 3.72403 2.19321
7950 1 1 17.5673 4.93992 2.43147
6823 1 1 17.9776 2.39851 35.4514
554 1 1 17.4782 3.52652 36.3461
34 1 1 18.6027 6.70968 2.5716
479 1 1 4.58073 5.13433 2.65513
1885 1 1 4.12047 4.86095 0.390543
406 1 1 2.26538 4.46787 1.91688
1369 1 1 8.61652 4.42586 0.953061
7663 1 1 6.00369 4.85558 1.04032
497 1 1 7.12238 3.87837 37.4408
542 1 1 6.9471 6.3257 36.2131
228 1 1 8.03868 2.7932 37.4188
7010 1 1 10.2111 4.17755 1.86343
7611 1 1 11.0436 6.09115 1.96807
7422 1 1 9.70062 7.57289 2.70629
7468 1 1 14.2567 6.74943 1.81257
1109 1 1 13.1569 5.44772 0.540583
461 1 1 13.6506 6.87778 0.586547
7444 1 1 15.9381 7.15123 2.14093
1718 1 1 0.291744 4.05366 2.92077
206 1 1 1.8861 6.94676 2.76806
323 1 1 7.85164 3.78535 0.8354
82 1 1 5.32087 7.62509 0.0983629
835 1 1 3.81253 5.92058 2.88336
7803 1 1 6.61347 7.33019 0.609864
623 1 1 8.4009 6.90439 1.96296
796 1 1 7.40206 4.88659 0.340594
7002 1 1 10.222 8.22542 0.501251
585 1 1 6.90025 6.91801 1.58911
7826 1 1 10.203 9.12784 2.20127
7935 1 1 11.8528 7.27516 4.72688
6828 1 1 15.3195 4.37182 1.95187
7937 1 1 13.5619 7.49767 1.69838
308 1 1 17.3809 6.84802 3.92392
7758 1 1 15.0477 7.52223 1.6929
7432 1 1 14.9424 4.14413 0.897864
431 1 1 16.8329 7.40534 1.73191
6443 1 1 18.7075 5.61959 4.47127
118 1 1 0.0229818 8.22805 37.1405
884 1 1 18.7488 7.24863 37.2903
1751 1 1 1.24191 6.72615 37.544
7841 1 1 1.78531 7.4755 0.541658
15 1 1 5.82466 6.56849 1.13228
1314 1 1 2.57992 8.77087 1.60991
7879 1 1 6.99666 5.70027 1.9188
475 1 1 6.19899 6.49725 0.12903
7643 1 1 7.36579 8.39654 0.0876772
7420 1 1 9.9949 7.27926 37.3014
7625 1 1 12.2523 5.8505 2.80763
53 1 1 10.2821 9.39964 0.465194
304 1 1 9.15712 7.68167 34.9107
697 1 1 8.52804 8.19459 2.56545
188 1 1 12.131 8.13988 2.7496
193 1 1 14.2726 8.03319 2.83746
557 1 1 11.7869 7.15199 3.54821
1942 1 1 17.7453 8.27751 3.80824
205 1 1 16.4295 6.54795 0.72987
7845 1 1 0.202102 9.78555 3.44945
7641 1 1 14.8551 6.70492 0.504423
7795 1 1 0.0428876 9.21059 0.831618
444 1 1 0.325979 7.67073 0.580198
1547 1 1 2.54323 9.57288 37.5039
997 1 1 3.13939 9.02991 0.674796
7322 1 1 5.58673 8.28049 0.892028
573 1 1 5.8481 10.9537 35.141
532 1 1 6.01521 8.84301 2.3519
1850 1 1 6.6366 8.87812 0.882599
615 1 1 9.27655 9.34039 1.56611
691 1 1 7.90278 11.3534 0.375466
7654 1 1 11.2724 8.50731 3.49441
6136 1 1 8.61056 8.85111 0.653563
7461 1 1 10.5349 10.1657 2.88586
498 1 1 13.9687 8.19838 1.04175
638 1 1 13.0079 10.092 2.56208
519 1 1 14.3375 9.09495 2.80025
223 1 1 15.8692 9.16187 2.47255
538 1 1 18.0992 8.57129 0.218244
165 1 1 17.5368 7.96251 35.4518
190 1 1 18.5399 6.96606 1.48012
7867 1 1 17.1427 12.1631 1.45269
7897 1 1 4.15425 11.3917 1.29123
138 1 1 3.91718 9.78971 0.550445
647 1 1 2.68293 13.031 1.55973
7967 1 1 3.76276 9.20802 2.07836
1048 1 1 6.65767 10.8331 36.9319
773 1 1 8.10942 11.0209 37.0619
1820 1 1 7.17222 9.89274 36.7143
534 1 1 9.10059 11.5283 37.4226
973 1 1 14.1016 12.0822 1.14147
699 1 1 9.52056 11.141 2.35565
7891 1 1 10.0155 10.6154 37.4445
250 1 1 11.0426 10.3783 37.1153
7452 1 1 14.0755 11.5183 37.0719
6669 1 1 12.3526 8.94067 0.0933483
1000 1 1 17.393 8.35322 1.55249
6599 1 1 16.1126 12.3376 2.34398
2234 1 1 15.6412 6.79092 37.296
1040 1 1 15.9582 10.338 37.0536
7991 1 1 15.724 12.0589 36.0946
962 1 1 1.80486 13.2064 35.5046
1529 1 1 1.07953 14.4251 1.78066
6604 1 1 1.23828 11.1307 36.2801
203 1 1 4.53876 14.7315 1.09324
215 1 1 3.19275 13.2853 0.579642
7376 1 1 4.49178 12.3947 0.904986
331 1 1 5.51617 9.50637 1.21017
1010 1 1 5.05383 11.5952 37.6491
530 1 1 5.71157 9.87756 37.4491
7402 1 1 6.25609 11.9631 37.0266
7864 1 1 9.13341 11.2687 36.3732
344 1 1 7.45427 9.93404 2.2924
993 1 1 9.31115 12.3925 0.471792
381 1 1 12.8148 12.4964 3.99746
2062 1 1 11.9042 12.4299 3.49055
660 1 1 9.27768 14.663 0.561218
261 1 1 11.9905 11.8232 37.0159
6997 1 1 14.8125 9.67831 2.14017
6705 1 1 16.183 10.3303 1.22276
230 1 1 14.999 8.90243 1.33658
7348 1 1 15.0853 9.74566 37.3551
7022 1 1 16.5739 11.0666 37.6428
7470 1 1 17.9235 13.3704 37.0081
7479 1 1 17.2609 10.932 35.0063
7888 1 1 17.7686 14.2015 1.15333
78 1 1 17.9079 13.9664 35.5036
6578 1 1 3.51985 12.2854 0.895703
1282 1 1 1.58463 14.4015 0.617011
85 1 1 2.69614 14.1239 1.50516
2755 1 1 2.55255 13.1268 37.2808
340 1 1 2.70895 12.3796 36.6892
1136 1 1 3.01295 15.921 34.853
1411 1 1 5.19517 15.4688 36.6287
6411 1 1 3.55206 14.5085 0.648932
7487 1 1 5.13536 15.2539 2.75148
765 1 1 8.01602 12.0568 36.6833
7464 1 1 8.83961 13.3452 2.20949
7545 1 1 10.6248 12.277 1.85748
1178 1 1 8.45956 15.1274 1.21355
307 1 1 12.275 13.7105 37.4973
7834 1 1 12.7345 14.1367 0.751103
769 1 1 15.9235 12.2317 1.19405
237 1 1 15.2543 14.525 0.642732
234 1 1 16.0745 11.2837 2.28503
163 1 1 18.3798 14.9177 1.69626
7934 1 1 3.35048 15.6128 36.8626
7840 1 1 3.00303 14.5998 2.53028
7755 1 1 2.98788 13.3638 36.3586
813 1 1 5.30863 14.8081 0.48133
1729 1 1 5.54601 15.9248 0.460528
363 1 1 1.9162 15.3453 35.8504
7139 1 1 4.88835 13.9088 0.227452
7610 1 1 7.81561 13.5245 36.6256
1573 1 1 5.9894 15.3074 37.3962
7543 1 1 7.27528 16.1859 1.93734
749 1 1 9.11394 15.9915 0.907251
1170 1 1 11.156 15.3706 0.835061
7075 1 1 13.5785 13.2563 0.780974
6822 1 1 9.89286 16.798 0.771421
7634 1 1 13.3214 16.5435 0.478099
1042 1 1 14.9844 15.5475 2.97582
6720 1 1 17.4393 14.8225 2.53689
7903 1 1 18.1534 16.8285 1.17741
7968 1 1 1.4122 17.7263 0.795221
6919 1 1 1.39225 17.492 37.197
7180 1 1 4.74554 17.0895 0.730311
7581 1 1 3.58417 18.6548 1.03214
419 1 1 7.0264 17.3336 37.6485
7210 1 1 4.24847 18.2274 36.8562
7963 1 1 5.97275 15.951 35.7173
1485 1 1 5.16153 16.6638 2.62107
428 1 1 5.75142 16.3735 36.9756
287 1 1 6.57666 16.4365 0.592364
8 1 1 6.74588 13.8863 0.147099
338 1 1 7.62301 15.6038 0.199222
377 1 1 10.7925 14.4892 0.433689
7856 1 1 6.22701 15.5012 3.2193
7778 1 1 10.7219 16.721 0.229164
6535 1 1 14.7083 15.1056 1.20691
7898 1 1 13.5963 15.6279 37.1025
7341 1 1 12.1806 15.6569 36.6841
7913 1 1 14.3506 15.5524 0.0778475
22 1 1 13.3579 15.2927 1.89843
7787 1 1 16.706 16.4345 0.881719
5999 1 1 0.197498 16.9902 0.714062
7390 1 1 16.1611 17.4881 0.951879
2134 1 1 0.78301 1.31775 0.801214
314 1 1 0.571817 17.9485 0.223005
1146 1 1 2.29412 16.4209 1.57982
7081 1 1 2.7047 17.0361 36.9624
1327 1 1 2.58724 0.427432 1.68912
1895 1 1 3.81946 17.4851 0.795489
7212 1 1 2.22581 18.3372 37.2029
397 1 1 2.52632 0.736748 3.82336
37 1 1 5.73902 17.1131 36.3074
1257 1 1 3.2405 17.2259 1.78421
456 1 1 6.79255 18.283 0.0146848
391 1 1 7.4345 16.9796 2.77759
7698 1 1 8.07991 16.7572 2.04349
141 1 1 8.99607 15.8603 2.11559
7975 1 1 8.34688 14.7346 34.3114
700 1 1 10.0485 18.419 2.3521
820 1 1 13.6098 14.634 37.4583
2661 1 1 13.9611 17.3053 0.5824
437 1 1 11.6819 0.399992 37.4385
2020 1 1 12.3013 0.419519 3.19687
7224 1 1 13.6058 16.8211 35.9563
7838 1 1 15.2973 17.2177 36.1896
7887 1 1 0.961797 17.8967 2.76608
785 1 1 18.3839 18.4945 2.6407
847 1 1 0.768041 1.53915 2.23996
1713 1 1 18.7576 3.6459 0.215537
7122 1 1 18.4503 2.95996 3.24113
310 1 1 1.5699 1.04327 2.96597
727 1 1 2.85731 1.88554 3.68519
834 1 1 4.77748 0.403328 2.13927
105 1 1 4.52068 1.46137 3.82142
96 1 1 7.88371 0.824516 3.96577
1328 1 1 4.52986 18.3183 2.82694
7535 1 1 7.46776 18.5762 4.22692
55 1 1 8.37806 0.339531 0.207823
1381 1 1 7.39437 0.80693 0.900711
2150 1 1 12.5609 17.9999 1.95679
1336 1 1 13.181 3.71928 2.72646
1213 1 1 11.1022 3.34447 1.98449
7478 1 1 12.0036 1.34333 2.3715
2153 1 1 16.2859 2.14667 6.10526
382 1 1 14.4576 2.11708 1.62967
7844 1 1 13.6563 2.17356 2.7716
7293 1 1 17.0279 0.516422 1.24075
7647 1 1 1.88942 18.4255 2.5965
398 1 1 17.587 2.40197 36.6236
1451 1 1 1.55277 0.194932 6.13146
1239 1 1 2.18449 2.55641 1.56898
2681 1 1 1.63792 2.37405 4.92009
603 1 1 2.64568 0.415641 5.84271
62 1 1 2.66222 3.77872 4.42281
7585 1 1 4.58523 1.48437 0.704463
94 1 1 8.37487 1.28328 2.96269
1168 1 1 5.36836 1.65463 2.42996
376 1 1 8.86858 3.48588 0.576439
528 1 1 9.31413 1.5356 2.25753
496 1 1 8.88362 18.7421 1.78757
824 1 1 8.9331 1.68017 5.17814
1333 1 1 10.0823 2.91222 37.6114
464 1 1 9.5058 4.79517 1.77306
7855 1 1 13.2871 17.6931 2.75534
6956 1 1 17.7165 1.16419 37.3782
1634 1 1 16.7885 2.32627 2.71444
1540 1 1 16.4663 1.12956 1.91919
430 1 1 0.796178 1.09765 4.12097
151 1 1 17.2981 2.53807 4.62338
155 1 1 0.797838 4.79535 4.72231
7366 1 1 2.2846 4.82543 0.833719
412 1 1 1.82083 3.32244 3.43879
324 1 1 1.55586 1.19251 37.3573
2365 1 1 4.16671 4.35973 3.46677
547 1 1 2.99955 3.26811 3.37527
6648 1 1 0.59073 3.72964 1.86789
7532 1 1 5.49505 3.03117 0.868148
1373 1 1 1.79589 2.12616 2.85195
1339 1 1 7.5702 1.79612 3.66575
239 1 1 9.20341 1.56089 3.56863
1308 1 1 10.0915 2.21135 3.254
587 1 1 9.50328 1.86366 6.09965
7821 1 1 12.3045 18.6322 1.19522
1076 1 1 9.29637 4.96543 3.99077
2232 1 1 12.17 4.34053 1.46676
537 1 1 15.1103 3.75344 3.17062
446 1 1 13.8642 3.68589 1.32486
1020 1 1 16.4572 0.490441 4.55383
7776 1 1 14.2391 4.14771 3.07948
591 1 1 15.5175 3.40143 4.06989
780 1 1 14.6371 2.53208 4.1099
651 1 1 17.5878 4.48743 3.57318
7440 1 1 16.7308 2.59188 1.51483
1636 1 1 17 1.83825 37.4569
68 1 1 0.82619 4.71611 2.20422
47 1 1 18.0456 1.33714 1.11236
580 1 1 1.82923 4.73751 4.01425
440 1 1 5.16085 5.89863 3.70402
6995 1 1 2.9873 3.75591 2.27418
7280 1 1 0.0952122 6.18988 37.2469
7413 1 1 6.2275 1.69832 36.5659
7823 1 1 6.97583 6.11902 2.88371
1379 1 1 8.42983 4.65587 2.14061
6659 1 1 8.33874 3.69659 2.72806
1045 1 1 10.2552 5.13923 1.24848
91 1 1 10.6912 4.98178 2.82559
173 1 1 12.0697 3.26323 3.68639
581 1 1 12.9615 4.63711 3.56771
1377 1 1 13.1403 5.89529 3.3815
1670 1 1 14.1503 2.91839 2.23803
958 1 1 13.0393 5.19755 2.5467
874 1 1 16.9488 3.8346 3.25507
924 1 1 1.79842 6.08706 2.05792
1158 1 1 2.40439 5.26381 2.81247
966 1 1 1.47132 5.04398 3.05675
983 1 1 3.51919 6.3046 4.17301
7028 1 1 3.91357 4.87557 4.80363
7944 1 1 3.22656 6.0535 0.0923118
568 1 1 5.33884 5.12723 1.84996
488 1 1 8.27991 6.06055 2.6939
1287 1 1 3.39152 5.22172 2.26548
1051 1 1 8.56688 7.17223 2.96673
1330 1 1 9.92606 6.93576 1.90302
231 1 1 11.4431 9.07589 2.36633
1262 1 1 10.7523 8.0268 2.59589
107 1 1 14.294 6.74846 37.1384
934 1 1 13.6156 6.16259 2.43693
7756 1 1 11.7185 8.49016 5.43918
1478 1 1 14.7789 7.68472 4.18786
6316 1 1 14.3768 6.30854 3.55366
2432 1 1 15.0726 6.36997 2.35328
1265 1 1 0.750939 6.2773 2.32861
956 1 1 16.077 4.17619 36.7292
81 1 1 2.11095 4.64639 4.98816
560 1 1 18.0304 8.00451 5.99649
928 1 1 2.75405 7.28965 3.3094
959 1 1 18.7886 7.68648 2.75894
2110 1 1 0.819894 7.21842 1.72418
98 1 1 1.50989 6.19571 3.71446
1766 1 1 2.86265 7.34683 1.69134
1409 1 1 4.41127 6.13631 1.90463
7921 1 1 5.85437 6.67703 2.37068
541 1 1 7.01773 8.84307 2.24393
153 1 1 9.24129 8.98946 3.64879
1001 1 1 7.63353 9.50773 4.21617
241 1 1 10.4902 9.00675 4.02827
6627 1 1 9.62902 6.4601 4.48618
281 1 1 12.9437 7.33817 5.27032
1044 1 1 12.6452 4.53744 5.65467
1863 1 1 17.0108 8.65102 3.07131
7428 1 1 13.3001 8.61653 4.48485
944 1 1 13.4739 7.79596 3.33056
2197 1 1 13.578 7.34781 4.2536
144 1 1 18.3197 5.82146 3.35172
536 1 1 17.7568 9.3763 1.55856
271 1 1 15.372 7.78655 3.03233
1441 1 1 16.0997 7.67125 4.10469
1473 1 1 14.4342 5.43734 2.1379
6875 1 1 18.0363 8.42221 2.56139
238 1 1 0.0703657 9.08303 4.37963
7308 1 1 16.557 7.07288 4.74306
1318 1 1 0.61484 8.434 1.26886
200 1 1 1.8435 10.4278 1.23388
1113 1 1 1.77411 7.75015 1.62222
478 1 1 3.83218 9.72986 4.12842
404 1 1 3.16702 10.3519 4.97147
114 1 1 2.53084 8.77623 2.63044
158 1 1 5.5472 7.87689 1.88433
222 1 1 2.84659 9.83544 1.34404
7482 1 1 4.59407 10.9347 2.16455
7791 1 1 6.1505 9.16884 3.29659
1450 1 1 6.97561 9.42756 0.0733432
7335 1 1 8.23618 9.93686 0.836381
1532 1 1 7.73538 8.97503 6.45013
1906 1 1 10.096 11.4787 0.832041
2065 1 1 7.60089 8.94376 1.356
586 1 1 9.46197 14.2374 1.91367
7538 1 1 11.5467 12.2615 2.53935
1790 1 1 11.1862 7.73292 0.62013
7829 1 1 12.3397 10.0953 4.94622
6864 1 1 10.6766 12.5252 0.554814
610 1 1 11.6405 11.121 2.45539
1070 1 1 13.4287 6.80947 3.28126
618 1 1 13.6865 9.7209 3.63626
602 1 1 15.6217 6.72733 3.50358
1068 1 1 16.5909 9.48127 37.164
1033 1 1 16.6924 11.0568 36.3468
84 1 1 0.728446 11.2207 0.883014
2154 1 1 17.9164 11.3 37.3683
1360 1 1 18.5727 12.3416 37.0824
1003 1 1 4.11556 9.97524 2.79174
6563 1 1 2.09984 12.2843 3.69545
757 1 1 1.19266 13.0405 2.3208
1005 1 1 17.1179 12.7845 2.63964
1337 1 1 4.14765 13.2892 3.50689
1093 1 1 4.37256 9.76651 1.59541
571 1 1 7.69894 7.36465 4.31851
627 1 1 5.22345 9.84721 2.59923
1163 1 1 5.28974 12.2565 3.12425
1417 1 1 7.09 13.1437 2.82502
1072 1 1 9.46198 10.7758 5.79073
1542 1 1 9.02377 12.5873 2.74472
2017 1 1 13.0002 11.1404 37.5139
379 1 1 14.4864 12.2658 0.150896
574 1 1 13.294 12.9818 2.90369
276 1 1 13.0061 9.47353 1.68117
790 1 1 16.0348 10.3733 3.90037
7798 1 1 12.9955 9.74201 5.95154
1631 1 1 16.4566 7.63776 3.18032
7474 1 1 18.6019 10.1593 1.43356
7249 1 1 1.47968 12.0244 1.80765
7451 1 1 0.272135 10.0619 0.0728465
7525 1 1 1.16711 15.397 1.43165
590 1 1 1.90746 11.1264 2.12224
7805 1 1 2.7641 11.6752 1.69593
7576 1 1 5.41697 11.2868 1.62613
374 1 1 6.78606 12.9505 1.82791
1061 1 1 6.5066 13.6893 5.05786
345 1 1 6.83584 10.6034 1.17363
970 1 1 6.49437 11.9812 2.61966
286 1 1 10.3064 15.056 2.07601
7851 1 1 11.7004 12.003 1.34586
872 1 1 11.8423 13.0545 1.68729
7858 1 1 14.5207 12.3204 2.206
1193 1 1 14.2052 11.2051 0.431653
669 1 1 14.4454 10.4821 3.96404
285 1 1 14.3376 10.8943 1.47855
4 1 1 16.7202 14.1947 35.8612
877 1 1 0.518239 12.267 4.09425
1120 1 1 17.2 11.2156 0.986331
1116 1 1 18.0601 13.0218 1.31955
7849 1 1 0.295433 14.5813 0.954751
2037 1 1 1.70976 16.341 35.1722
724 1 1 0.17673 12.9991 3.00551
154 1 1 4.98235 15.5656 1.59106
7503 1 1 6.40502 18.4789 2.01075
7004 1 1 7.74776 12.3077 0.63184
687 1 1 6.18305 14.6366 6.01387
64 1 1 7.851 12.6917 1.60559
1210 1 1 6.94176 13.9457 1.46293
256 1 1 10.8351 15.0736 2.9563
7436 1 1 11.0129 17.026 4.01828
7489 1 1 11.2234 13.5404 0.963924
7550 1 1 10.5242 12.9663 2.83525
1537 1 1 12.7195 10.4873 3.68777
1107 1 1 15.1664 12.3693 3.10594
7052 1 1 16.809 12.8381 3.85367
7993 1 1 15.9652 14.657 4.07628
6750 1 1 14.5152 13.2163 2.96658
265 1 1 17.1535 11.5075 4.51844
6674 1 1 17.8622 12.2652 4.16468
8000 1 1 2.82929 15.4399 1.54588
688 1 1 1.75326 12.9031 1.29309
1446 1 1 4.75472 16.0009 37.492
1638 1 1 3.76965 15.046 2.02668
1082 1 1 3.88601 15.5442 1.00424
336 1 1 2.31139 13.3893 2.45515
7613 1 1 6.00387 17.6964 2.7999
7562 1 1 9.10902 13.5551 4.55391
584 1 1 6.89246 15.0917 1.96596
277 1 1 6.10665 12.4807 1.09059
1226 1 1 10.1999 16.3165 4.68347
411 1 1 9.80445 15.7951 3.98892
1706 1 1 11.9945 14.4804 1.88591
227 1 1 10.4711 14.0294 2.62186
7230 1 1 11.9676 16.8776 3.65049
425 1 1 16.9859 13.311 1.40031
6832 1 1 12.4444 13.6368 2.98623
375 1 1 15.8575 15.9409 2.55055
465 1 1 15.4369 14.335 1.95906
7811 1 1 16.9211 15.8695 1.67443
6824 1 1 16.3532 13.3598 2.18754
2367 1 1 18.6383 16.7108 2.32529
1173 1 1 3.34931 15.4655 3.38461
7188 1 1 17.866 17.4388 2.56959
643 1 1 0.883302 15.3145 2.45715
7957 1 1 3.39629 16.4289 3.82522
7561 1 1 2.05045 15.1288 2.26475
795 1 1 2.22069 17.5486 1.29511
1453 1 1 4.02783 16.1644 1.99236
1908 1 1 6.46968 11.6067 1.64454
1047 1 1 7.32774 15.7971 2.88699
937 1 1 6.39907 16.7631 2.51081
841 1 1 8.28936 17.429 3.24939
7984 1 1 7.89705 14.9006 2.19957
1064 1 1 9.85972 15.4453 1.25968
1143 1 1 11.649 16.3011 1.31641
7620 1 1 11.5361 13.4979 2.50331
31 1 1 14.286 18.0966 37.133
501 1 1 13.6689 16.2272 1.53927
7779 1 1 10.863 16.0949 2.5134
7040 1 1 13.1301 14.9221 3.2745
1590 1 1 15.3517 17.0204 2.68144
3499 1 1 15.3527 17.2729 1.41612
6905 1 1 15.9214 15.3257 1.71105
40 1 1 0.156944 17.691 3.56443
809 1 1 1.35929 17.0429 3.58573
1086 1 1 1.87757 15.4539 3.62727
325 1 1 4.23817 14.4943 4.35292
682 1 1 1.40252 17.1932 2.09534
7119 1 1 4.73883 0.252633 1.03915
43 1 1 7.00485 17.525 1.96079
2026 1 1 6.04351 18.6492 1.02099
814 1 1 10.114 0.919272 1.8842
7508 1 1 11.1848 17.1943 1.41047
7349 1 1 10.1794 1.14711 0.316757
781 1 1 10.4396 17.379 3.08777
6027 1 1 9.86821 16.3122 2.66209
1229 1 1 15.7283 1.75142 2.82002
708 1 1 11.5659 17.1884 2.74331
2038 1 1 15.1025 16.2555 1.88764
33 1 1 16.9898 17.5008 1.81917
1200 1 1 17.5949 16.3702 2.44378
845 1 1 1.9766 1.41365 4.36184
1930 1 1 3.77839 2.36012 4.29279
480 1 1 3.56389 1.39711 3.11865
1514 1 1 4.18068 18.0447 4.25772
1461 1 1 4.89372 18.5018 4.97989
7926 1 1 5.37095 16.5925 1.4629
605 1 1 7.01454 0.543764 1.94495
1687 1 1 9.98646 18.646 3.38498
7745 1 1 11.0273 18.1764 2.58921
7580 1 1 12.8386 0.407365 5.40356
7656 1 1 11.5926 16.8294 5.0571
1270 1 1 15.4706 18.8053 5.05119
7 1 1 16.3884 18.0212 2.96976
7601 1 1 18.735 0.270485 3.38965
109 1 1 18.3912 2.72149 4.2114
7848 1 1 2.80319 2.2796 8.07189
1205 1 1 0.514555 1.14353 5.39434
799 1 1 4.25156 4.67066 5.78701
7896 1 1 5.24188 1.61744 4.62944
450 1 1 6.32799 1.65094 2.88919
7715 1 1 6.86996 18.5138 6.52929
1331 1 1 5.39747 4.22799 2.65569
7700 1 1 9.19779 17.7175 1.97824
7785 1 1 8.33391 2.1602 2.11357
7616 1 1 9.9766 1.1481 3.02609
385 1 1 9.19537 2.46159 1.59778
890 1 1 10.3347 3.35199 3.52731
149 1 1 13.8735 17.7765 3.63336
576 1 1 15.5746 0.64263 2.42691
1992 1 1 13.8836 1.13666 3.81938
1785 1 1 14.9446 0.508888 1.35068
946 1 1 14.9798 0.898385 4.10106
1037 1 1 13.5337 2.56651 0.651505
1203 1 1 12.599 2.4435 4.08211
2099 1 1 16.7673 0.516437 5.64756
525 1 1 16.1103 18.7681 1.76991
7914 1 1 15.924 1.73022 4.55778
283 1 1 17.8509 0.571577 5.4278
1602 1 1 4.05188 2.72711 6.65824
139 1 1 18.3177 4.072 5.26994
1194 1 1 3.09048 5.33169 6.38703
729 1 1 2.98019 4.68994 5.58147
7996 1 1 6.76294 0.992702 3.99556
656 1 1 4.2406 3.58226 4.88255
2046 1 1 5.75653 2.32295 3.34494
611 1 1 4.37838 3.84219 2.41513
209 1 1 7.94535 1.97795 4.80449
936 1 1 4.01481 3.20922 3.47417
1776 1 1 6.85743 0.748571 5.20835
887 1 1 11.0503 1.67772 2.80556
1378 1 1 9.08044 2.89962 5.73955
1416 1 1 9.16765 4.20514 3.00888
1344 1 1 12.8882 1.39784 3.3799
906 1 1 13.8292 3.0565 3.56434
7827 1 1 13.9146 3.21887 4.68489
2323 1 1 16.7719 1.94186 3.83476
2471 1 1 1.07972 18.6135 3.65512
552 1 1 0.329062 2.05116 4.77715
745 1 1 18.0933 1.30531 3.24466
2071 1 1 18.4759 4.85761 3.47021
1717 1 1 1.53766 5.66044 4.56287
1202 1 1 3.21643 4.64118 4.02829
7754 1 1 4.65258 2.07868 2.86356
7648 1 1 6.93893 3.98981 2.64561
1376 1 1 5.15721 3.33067 3.43697
604 1 1 4.23436 5.46624 6.5695
566 1 1 8.448 2.49795 3.34937
2348 1 1 7.82308 3.38065 3.56061
1466 1 1 7.24998 4.64012 1.56947
2126 1 1 9.56721 2.66187 4.18562
156 1 1 9.49047 3.99063 5.47394
469 1 1 9.73435 3.48642 4.5604
636 1 1 14.7809 2.62475 3.03208
387 1 1 12.2846 6.38381 4.22099
6762 1 1 15.6882 4.91278 1.17818
1231 1 1 17.8701 2.76699 1.94413
6804 1 1 18.5374 4.00975 4.11583
2357 1 1 15.754 5.4811 2.44794
913 1 1 0.57721 5.32995 3.59643
1316 1 1 18.7743 5.90814 6.19231
912 1 1 5.30008 6.94136 5.15278
6975 1 1 2.5725 4.17294 3.17412
1802 1 1 4.75343 5.77459 4.71361
454 1 1 8.38873 4.99535 4.37192
358 1 1 5.34122 4.93724 3.34265
7096 1 1 9.31376 5.65651 2.5706
582 1 1 10.4748 3.35618 5.81979
7904 1 1 10.5625 6.63337 2.94031
1759 1 1 10.8019 7.49294 3.79613
401 1 1 13.5429 5.46345 6.66492
908 1 1 14.1778 6.14656 5.57004
1793 1 1 17.6313 7.26045 2.5789
1709 1 1 18.3961 6.98657 3.57159
7228 1 1 16.9346 4.72755 5.53284
752 1 1 0.150858 7.9171 4.95956
481 1 1 0.448664 6.63679 3.49331
1399 1 1 0.608683 7.5246 3.98088
1443 1 1 3.00737 5.31442 4.75438
45 1 1 6.39402 6.79495 3.28595
996 1 1 1.12981 8.05477 2.67294
7651 1 1 2.67892 6.26073 6.64187
1405 1 1 5.23673 8.0931 4.94103
661 1 1 6.17925 5.56284 2.62365
177 1 1 8.93812 6.57267 3.73226
1301 1 1 7.06575 7.75652 3.32928
1609 1 1 7.19641 8.34299 5.47149
462 1 1 8.97884 9.31107 4.67019
7743 1 1 9.57874 4.98851 5.4247
74 1 1 10.3381 8.30618 5.22796
551 1 1 10.9183 7.99571 6.11108
1822 1 1 10.0105 7.69369 6.42039
556 1 1 15.1238 8.70171 3.46444
1939 1 1 15.0299 6.77016 4.67695
2594 1 1 16.7846 6.56597 5.61635
1728 1 1 18.2652 7.95534 1.35184
1396 1 1 17.2587 4.91919 7.04459
1128 1 1 0.871399 10.5422 3.57324
175 1 1 2.67367 7.78394 0.238123
1419 1 1 3.6015 10.278 6.14493
925 1 1 4.30533 10.7839 3.84661
1475 1 1 2.93713 8.05305 4.72826
896 1 1 3.34789 12.8661 5.2046
7862 1 1 5.9417 7.85714 3.12992
7953 1 1 8.80871 10.2956 3.39186
955 1 1 8.47541 9.26567 2.29831
1217 1 1 9.54692 10.0422 2.42501
7334 1 1 8.20962 6.84543 8.86637
232 1 1 12.1639 11.0046 4.4251
1833 1 1 12.8615 8.30281 1.72981
253 1 1 14.7927 9.50131 4.90145
600 1 1 15.7127 9.5658 4.33738
1422 1 1 14.1984 10.2526 2.79876
108 1 1 15.3962 9.77661 3.26006
1498 1 1 12.1602 8.59467 4.13371
1715 1 1 16.3202 8.22775 1.98197
914 1 1 17.0999 5.48512 4.62999
146 1 1 17.3226 10.9289 2.28601
1350 1 1 16.9173 10.0129 2.67854
7397 1 1 15.7594 10.3545 2.33652
1798 1 1 0.34982 7.78686 5.96211
1637 1 1 18.1023 10.2351 2.80227
6972 1 1 0.258371 8.65921 2.28042
1878 1 1 1.90948 10.7738 3.83011
393 1 1 1.93194 13.8161 3.71906
6683 1 1 2.85038 11.2602 4.24915
201 1 1 6.16854 12.4011 3.61444
1427 1 1 5.17237 7.10915 3.15406
1135 1 1 5.91015 11.7609 4.48539
1177 1 1 8.12573 8.36191 4.41589
825 1 1 5.92263 10.3636 1.66003
3250 1 1 7.4893 10.2892 3.43091
1112 1 1 11.1562 11.2908 3.43303
622 1 1 11.8361 11.3438 5.48049
1825 1 1 8.27331 10.7948 2.49286
526 1 1 13.5016 8.72278 6.80123
2244 1 1 12.7895 9.52193 4.17031
162 1 1 14.7163 10.6282 5.51457
1676 1 1 14.2876 11.6993 5.68546
1827 1 1 15.4013 9.12042 7.18463
960 1 1 15.3553 11.2063 3.56393
7603 1 1 18.5396 10.2446 4.16223
648 1 1 16.7213 12.2294 36.9141
715 1 1 0.194834 10.6921 2.45577
967 1 1 0.135863 13.6953 1.64774
1486 1 1 3.49544 12.1593 3.7888
52 1 1 4.02203 13.7194 5.0046
690 1 1 6.12741 10.3163 3.85791
216 1 1 4.20349 12.1097 4.96832
2215 1 1 7.3921 14.1894 4.4638
290 1 1 6.85558 11.3726 3.68734
1175 1 1 9.8691 12.1046 3.07232
1069 1 1 7.36557 10.6927 4.39885
1046 1 1 7.34439 12.3564 3.42353
678 1 1 13.8636 10.536 6.22021
1757 1 1 14.1502 12.9129 3.90562
683 1 1 15.413 11.1824 1.22922
235 1 1 15.6996 12.1344 4.43023
7350 1 1 17.718 13.7522 2.05273
306 1 1 16.9604 13.7606 2.88212
7480 1 1 16.4024 11.5223 3.60352
629 1 1 16.9622 15.2416 3.5617
300 1 1 18.2279 11.9384 1.90599
712 1 1 17.3964 14.1003 4.14005
1078 1 1 18.7423 13.0551 6.85699
7403 1 1 5.79748 13.4064 2.82588
6379 1 1 5.01042 14.3537 2.09116
1504 1 1 5.97441 13.5594 3.8555
815 1 1 6.40875 14.2979 2.66793
6979 1 1 5.64225 15.1634 5.27868
1512 1 1 7.13863 10.6926 0.234724
2425 1 1 9.12119 14.7718 3.76169
1139 1 1 10.4897 15.2672 4.47661
468 1 1 9.70852 15.4222 5.33777
1912 1 1 7.13412 14.9303 3.74456
572 1 1 8.80831 14.3071 2.8189
1533 1 1 12.4979 12.0273 1.95919
1187 1 1 11.2999 13.2519 3.54537
7853 1 1 14.4852 13.4506 1.43213
7893 1 1 13.1641 14.7687 6.63607
670 1 1 16.1909 14.5863 2.56761
1958 1 1 2.40345 12.3229 2.56932
844 1 1 0.273235 14.0206 4.64235
853 1 1 18.1048 14.4232 3.27536
1561 1 1 3.94019 14.0061 1.66906
663 1 1 1.14698 13.5686 4.55414
1531 1 1 4.47772 14.0993 3.03732
902 1 1 3.0043 16.1808 2.38404
1266 1 1 6.07162 14.7133 3.95453
734 1 1 6.27394 14.9873 0.813581
1545 1 1 8.18212 13.429 4.00651
317 1 1 11.3775 15.071 4.45817
460 1 1 10.6647 16.1412 3.57786
7704 1 1 13.4199 13.8777 2.38003
7146 1 1 14.9825 9.92135 6.79862
990 1 1 16.5582 16.0379 3.28909
443 1 1 17.7449 16.4307 3.50758
1087 1 1 15.9374 15.5383 3.76552
1526 1 1 3.28741 14.8812 4.75498
1689 1 1 1.67418 16.0516 4.44811
812 1 1 0.671954 17.6863 5.11981
1198 1 1 2.00584 18.5995 3.90825
800 1 1 1.84713 15.217 6.21143
816 1 1 1.7614 1.00823 1.94938
861 1 1 0.776663 15.2677 4.63445
860 1 1 3.81548 18.7074 2.29171
1179 1 1 5.047 14.9466 3.96046
7123 1 1 5.71851 0.832817 3.88161
2824 1 1 5.67555 17.7598 1.59166
7627 1 1 8.39245 16.5055 5.57372
504 1 1 8.55689 15.8607 3.65099
260 1 1 6.03371 15.7982 2.11272
384 1 1 9.31946 16.7054 4.08582
423 1 1 12.7763 16.1817 3.05207
1579 1 1 12.8537 14.3094 5.54642
1541 1 1 10.882 16.0245 5.45174
7990 1 1 11.9865 14.6996 3.01052
818 1 1 12.6236 16.9108 4.47845
7911 1 1 15.2195 18.5599 3.72595
7635 1 1 13.8392 14.6683 0.845582
1474 1 1 15.4282 16.4927 3.52946
1406 1 1 16.2741 17.3146 4.84942
278 1 1 18.3787 17.612 6.30048
1149 1 1 17.6979 16.9688 4.65883
843 1 1 18.1372 18.1075 0.868071
1569 1 1 2.09646 18.553 0.881211
686 1 1 2.34707 16.9133 4.72508
728 1 1 2.9604 17.628 3.86092
1140 1 1 3.69847 17.0753 2.74451
115 1 1 3.77116 2.03797 2.1553
1932 1 1 5.47227 15.9626 4.61466
888 1 1 2.20012 16.5702 3.43201
293 1 1 6.15742 18.5543 3.367
171 1 1 7.43557 17.2651 3.83283
7619 1 1 8.08361 0.2508 2.82959
1131 1 1 8.82111 17.2314 4.80936
1133 1 1 11.9779 18.1043 3.60981
421 1 1 13.2412 18.6191 3.34173
224 1 1 11.0786 18.2764 1.21077
390 1 1 8.88447 0.430477 4.15356
7987 1 1 11.7589 18.6176 2.17607
7938 1 1 13.3787 1.1582 2.13154
7149 1 1 14.2758 17.6824 1.62407
948 1 1 13.11 17.1585 5.44819
427 1 1 17.1636 17.2572 3.21979
822 1 1 18.0397 18.6413 4.36094
1554 1 1 17.9693 16.7564 6.8097
328 1 1 17.3915 18.4929 2.09048
915 1 1 2.98821 0.581867 4.7041
7197 1 1 4.38952 17.3958 3.39707
1643 1 1 0.695566 0.998557 6.60833
2285 1 1 5.24206 18.3153 3.66855
1488 1 1 5.92256 18.8363 4.51942
767 1 1 4.20669 16.7095 4.99072
248 1 1 5.90016 17.6184 4.47825
7678 1 1 7.7026 16.4354 1.003
7524 1 1 5.98084 0.151167 7.15766
2140 1 1 6.67808 0.921768 6.66189
41 1 1 6.32505 18.3441 5.44055
14 1 1 8.40176 0.0221383 5.9036
6673 1 1 11.0301 18.1214 3.96042
1582 1 1 8.88128 18.2626 2.91434
947 1 1 8.07554 3.40932 6.77703
671 1 1 12.5326 0.682913 4.24337
2109 1 1 13.8144 18.0992 5.61173
7549 1 1 14.2493 18.7814 3.11665
1999 1 1 14.4593 0.381126 5.71738
3146 1 1 18.4189 0.85039 4.56248
1591 1 1 17.4888 2.00008 5.72745
558 1 1 17.5182 0.610997 3.82181
869 1 1 16.3126 18.7079 6.6316
867 1 1 2.15141 2.8963 6.08221
1319 1 1 2.32502 18.5836 5.02297
1129 1 1 2.78196 1.89816 5.34165
1197 1 1 3.02343 2.42018 6.6223
6767 1 1 5.8128 2.77474 1.98808
1675 1 1 5.90095 0.514211 5.99629
2136 1 1 5.07264 0.802816 5.3001
104 1 1 4.44734 0.331001 6.1769
885 1 1 9.31231 17.8626 3.91358
7762 1 1 8.09349 0.829092 5.17348
7997 1 1 9.66514 0.547036 6.25041
3337 1 1 9.09588 0.612076 5.2365
1658 1 1 9.18108 0.498223 2.76328
7989 1 1 10.3134 1.42718 5.63217
616 1 1 12.4005 17.9062 5.06227
32 1 1 12.1856 3.51855 4.76243
859 1 1 13.4679 1.34805 5.17712
1345 1 1 15.0733 1.4291 5.03023
2392 1 1 15.6756 4.72196 5.4849
7044 1 1 15.4853 2.61229 4.84169
157 1 1 16.5412 3.04699 6.62236
1223 1 1 0.286309 1.17379 3.14665
119 1 1 15.7464 0.935081 5.51947
509 1 1 0.284481 2.25113 6.26595
792 1 1 2.00333 3.94668 5.95578
1325 1 1 5.15867 2.8046 7.05287
910 1 1 4.46668 4.93644 7.88284
441 1 1 4.49642 3.83734 6.38493
951 1 1 4.7633 3.21425 5.73624
1608 1 1 3.02598 3.58277 9.33398
2208 1 1 7.5159 2.90483 5.19064
455 1 1 6.31592 2.85174 7.24003
1375 1 1 7.18903 2.59 7.54349
1255 1 1 7.07869 2.80283 3.78063
588 1 1 7.39873 2.20973 6.47969
2094 1 1 8.32924 2.45757 6.22379
593 1 1 9.44323 3.03619 2.99221
1749 1 1 9.95023 1.48871 4.33924
511 1 1 14.5195 0.747046 2.23411
180 1 1 11.92 2.05911 3.48065
140 1 1 11.1484 3.92369 2.96297
1317 1 1 11.1688 1.98251 4.70791
1309 1 1 8.91529 3.85994 3.91186
850 1 1 13.6573 4.77201 4.29428
870 1 1 12.8339 2.22019 5.21177
7712 1 1 13.7015 4.50806 5.37636
1413 1 1 17.4745 3.68397 4.64819
1338 1 1 18.0425 4.83104 4.6191
486 1 1 17.1401 4.09749 6.37575
954 1 1 0.701661 3.32205 4.57958
756 1 1 1.74041 4.24233 7.96853
2558 1 1 1.4848 3.59222 6.88616
1543 1 1 3.9082 6.06862 5.20373
1538 1 1 0.387028 6.76311 4.80495
1355 1 1 4.90101 2.91911 4.50294
1852 1 1 6.25987 2.98838 4.54809
7843 1 1 7.58337 3.77318 6.01652
1299 1 1 5.92834 4.27457 6.21711
252 1 1 9.23301 4.72937 7.98128
1098 1 1 8.28599 5.43613 6.08115
2139 1 1 11.5239 3.00507 5.34992
211 1 1 8.43037 4.20061 6.13499