ITEM: TIMESTEP
2400
ITEM: NUMBER OF ATOMS
8000
ITEM: BOX BOUNDS pp pp pp
0.0000000000000000e+00 1.8820720577620570e+01
0.0000000000000000e+00 1.8820720577620570e+01
0.0000000000000000e+00 3.7641441155241139e+01
ITEM: ATOMS id mass type x y z
2134 1 1 18.5187 0.987235 0.0707019
420 1 1 1.2476 0.42124 37.1385
445 1 1 2.3104 0.652952 37.6275
834 1 1 3.00085 1.26211 1.38258
776 1 1 1.09473 0.933618 0.971413
105 1 1 4.95007 0.32576 1.39922
7919 1 1 4.62372 1.42189 1.00098
6851 1 1 6.06648 0.285203 1.59834
886 1 1 6.3963 1.33026 1.13839
94 1 1 7.08625 2.10478 0.603067
7349 1 1 9.46286 0.220498 1.36332
7785 1 1 9.77503 1.93022 3.11651
141 1 1 10.4168 1.00855 1.10075
11 1 1 13.8083 0.564927 0.312671
781 1 1 11.4709 0.248638 2.70772
422 1 1 14.0534 1.25367 36.8795
7708 1 1 16.1165 17.9796 37.1953
7987 1 1 13.1417 0.638225 1.08449
7669 1 1 16.6867 2.3673 37.4238
1142 1 1 17.4469 1.45037 0.940336
366 1 1 17.6985 0.934908 36.4587
351 1 1 16.7811 18.1823 35.716
7950 1 1 1.92946 3.97533 37.4499
318 1 1 2.77522 5.17643 37.0435
18 1 1 2.94518 3.63001 37.6371
547 1 1 5.33255 2.61064 1.88879
62 1 1 3.88696 2.64899 0.125834
527 1 1 5.55922 2.77692 0.667281
6648 1 1 6.22284 2.38224 1.39042
529 1 1 7.45481 2.45381 1.61765
429 1 1 5.52276 1.09259 0.475598
464 1 1 9.05001 2.46324 1.14236
292 1 1 8.18313 1.80429 0.810157
7580 1 1 10.3017 2.2262 0.995681
7287 1 1 11.2757 1.68312 1.49021
7611 1 1 12.957 4.49355 0.664829
787 1 1 13.2267 3.5617 0.254112
7549 1 1 11.7942 1.25666 2.86529
543 1 1 13.7942 2.27305 0.190241
356 1 1 14.9814 1.52406 0.50519
7713 1 1 12.4362 0.383886 36.9847
1634 1 1 17.5119 2.38626 2.08953
383 1 1 16.3124 1.40633 0.550883
1110 1 1 0.402623 1.79955 0.440176
35 1 1 17.586 5.33202 0.680439
7690 1 1 1.05238 3.59223 0.961009
7972 1 1 2.06726 3.1496 0.42473
34 1 1 1.95135 4.73602 0.867767
7647 1 1 1.19054 2.17392 1.06253
835 1 1 3.54941 5.55001 2.14643
1239 1 1 2.94999 2.28844 2.02758
7366 1 1 3.91977 4.53061 1.84392
219 1 1 3.25258 4.62399 0.318839
323 1 1 5.87377 5.06281 0.0811668
7413 1 1 6.09999 4.00392 0.612084
217 1 1 7.13813 2.17223 36.6786
824 1 1 9.63205 3.41011 3.17408
779 1 1 10.9804 2.7353 0.0866974
7591 1 1 14.5801 2.95523 1.75512
6821 1 1 12.1988 3.75745 0.543264
39 1 1 14.1845 3.29698 37.4431
6823 1 1 17.8872 3.09908 36.7556
6399 1 1 15.566 3.11189 1.27901
76 1 1 15.6989 4.60767 36.8174
7960 1 1 18.4504 4.38492 0.508419
81 1 1 1.34854 5.6979 2.38523
475 1 1 3.35312 6.37113 1.22119
1488 1 1 4.17958 5.28506 4.31253
6995 1 1 4.65022 5.3575 1.79614
7028 1 1 4.93774 5.50031 0.772947
623 1 1 6.93977 5.07516 37.488
587 1 1 8.54732 4.2584 1.11686
1701 1 1 9.714 3.10901 36.8416
107 1 1 11.4102 5.88521 1.96595
7422 1 1 13.284 5.49004 36.3631
2153 1 1 14.9032 3.98185 1.24768
1109 1 1 13.4124 4.54815 37.351
1309 1 1 16.1763 3.85533 2.15804
7444 1 1 14.9334 4.92816 0.23309
591 1 1 14.6385 5.04824 1.49038
1718 1 1 17.8026 4.8848 2.65828
7636 1 1 16.3075 4.68802 0.422109
6828 1 1 15.0581 5.83925 0.908499
6762 1 1 18.734 5.59427 0.735939
6443 1 1 17.8955 6.46188 0.664563
7845 1 1 18.2702 7.45145 0.971026
966 1 1 2.37098 6.89631 0.704166
7424 1 1 4.69351 6.61706 37.4413
796 1 1 5.62905 5.31177 1.72224
488 1 1 7.47 6.19852 1.42714
542 1 1 9.29209 5.5985 37.4499
178 1 1 8.90631 6.38378 0.395803
7071 1 1 7.93426 4.97354 0.288208
91 1 1 9.89239 6.30847 1.94678
7468 1 1 12.571 5.75235 37.1975
156 1 1 9.42162 4.40078 3.78873
461 1 1 12.7216 6.12213 1.15177
281 1 1 13.298 5.48221 0.507122
908 1 1 15.0971 7.14777 2.08207
7440 1 1 16.0681 5.20208 1.47009
7756 1 1 15.0671 5.59217 2.36843
7641 1 1 17.8112 6.4821 36.7221
560 1 1 1.49965 7.43381 1.6335
197 1 1 3.43953 7.40611 37.2669
10 1 1 3.66177 9.5356 0.165958
7643 1 1 4.43421 6.30469 1.3888
60 1 1 6.07136 6.89932 37.3623
153 1 1 5.6403 8.25363 0.913321
15 1 1 5.78695 9.24577 37.3403
7002 1 1 7.91152 7.48194 1.14251
932 1 1 5.41588 10.2097 37.1008
973 1 1 9.1289 9.80381 37.6497
6933 1 1 10.0742 6.17215 0.19206
7654 1 1 9.1594 7.28835 0.700827
1020 1 1 10.5822 5.2622 2.91098
74 1 1 10.2534 7.42623 1.39131
538 1 1 14.7645 9.1065 1.81247
1238 1 1 10.993 9.60228 36.3173
1044 1 1 11.4788 8.00205 1.22433
144 1 1 15.2536 7.71135 1.01811
349 1 1 16.1916 10.2443 1.58446
6316 1 1 14.1848 7.13448 0.640072
238 1 1 16.6698 8.73495 1.20735
118 1 1 16.6064 7.06158 0.721514
1318 1 1 18.7846 9.09378 37.4571
7758 1 1 17.5736 8.79149 37.3365
1360 1 1 0.301191 9.04252 2.61477
158 1 1 1.32589 8.59352 1.61844
997 1 1 0.286801 8.49842 1.42855
478 1 1 2.33499 8.83192 1.14171
7795 1 1 18.5505 9.83931 1.80846
7847 1 1 5.07668 11.6541 0.761705
1048 1 1 4.5979 10.6962 1.12413
138 1 1 3.57096 10.3135 0.704458
6136 1 1 7.40199 8.59839 36.9694
645 1 1 6.12874 7.86832 37.5137
133 1 1 8.40958 10.3013 0.756723
7932 1 1 10.4613 9.29036 0.564358
7825 1 1 10.4312 10.3328 35.3197
188 1 1 12.871 10.3696 0.118848
679 1 1 15.6329 10.6193 37.5098
308 1 1 15.6726 6.60604 1.30407
928 1 1 18.4795 7.89129 2.0009
6972 1 1 0.0557045 10.5294 2.49105
7474 1 1 17.395 10.727 0.960378
202 1 1 1.37511 12.0282 36.7755
7812 1 1 2.74033 10.6485 0.317588
222 1 1 4.44086 9.68033 1.33996
7576 1 1 5.24388 11.3692 1.77008
16 1 1 6.57296 10.8975 0.29937
7894 1 1 5.13379 11.4264 37.3052
345 1 1 6.28279 11.2853 1.45023
7862 1 1 7.36802 11.1436 2.99616
154 1 1 4.59964 13.8572 2.31445
424 1 1 9.51814 9.09286 35.6695
7538 1 1 11.5274 10.8579 1.21559
1790 1 1 11.184 8.52675 2.11483
574 1 1 12.3237 11.1837 37.5705
610 1 1 12.0445 9.8736 2.32019
7851 1 1 13.2321 11.4416 0.863239
7544 1 1 14.1119 11.4903 0.00124274
4 1 1 16.1026 12.1357 0.187593
7350 1 1 15.4354 11.8788 1.72267
165 1 1 0.313644 11.0748 37.4296
962 1 1 1.61876 12.7495 37.4731
203 1 1 3.85194 12.1621 0.585957
6578 1 1 2.03584 13.6549 37.632
215 1 1 3.13052 12.5528 37.5161
243 1 1 4.33675 12.9624 0.0317422
7376 1 1 5.45641 12.582 1.09685
773 1 1 7.10213 13.8202 37.4468
453 1 1 5.91823 13.4189 0.296964
1135 1 1 8.06565 12.6879 1.8073
970 1 1 7.44482 12.8106 0.792249
699 1 1 8.4626 12.5689 0.767783
1906 1 1 10.0818 10.2909 0.825388
993 1 1 11.2634 12.6899 0.671203
660 1 1 10.8367 13.5173 1.08019
256 1 1 12.5444 8.87412 0.722786
790 1 1 14.1431 11.6282 1.48086
7811 1 1 12.7733 14.6897 1.39247
705 1 1 14.2077 12.7122 0.224158
7410 1 1 12.5395 13.004 0.278094
1073 1 1 17.9095 11.8569 0.570778
7858 1 1 15.0309 12.4464 0.672315
7052 1 1 15.0826 12.7254 2.21123
237 1 1 17.2764 12.4051 37.5662
7479 1 1 0.13461 12.4502 0.263487
7817 1 1 1.23741 14.8393 0.824191
704 1 1 2.49562 14.6868 1.28725
751 1 1 3.48401 12.9917 1.82612
7004 1 1 7.37545 14.2295 2.65788
584 1 1 8.89062 14.119 0.908798
7543 1 1 10.3274 14.1564 0.385557
7464 1 1 10.0419 14.0668 1.48496
7516 1 1 13.6684 14.876 36.652
1153 1 1 13.9673 13.564 37.0772
7898 1 1 12.9561 13.4329 1.17904
113 1 1 16.9084 13.3128 37.2664
7022 1 1 17.489 14.4184 0.528232
306 1 1 16.4038 13.7216 1.7835
1108 1 1 16.8421 13.0401 36.0124
1561 1 1 1.41943 15.1957 2.73299
7086 1 1 3.0864 17.0243 0.350512
1173 1 1 2.6959 16.5785 1.30309
7934 1 1 1.47626 15.8577 0.287901
7180 1 1 3.92466 16.1974 0.921083
439 1 1 3.61311 14.3458 0.620827
7840 1 1 3.32736 15.3437 0.722135
7755 1 1 3.83921 14.8864 2.41889
287 1 1 7.69706 16.7665 1.30488
6411 1 1 6.77789 14.4723 1.82519
255 1 1 6.35936 14.4171 0.463992
7527 1 1 7.53694 14.598 0.350632
229 1 1 8.54973 15.9007 0.0232533
227 1 1 9.52317 14.9461 0.915613
7206 1 1 10.9812 15.5641 37.1557
7436 1 1 11.8063 14.1947 1.17891
7230 1 1 12.8681 15.6567 1.72546
7853 1 1 14.4138 14.1735 1.91255
7075 1 1 12.2337 15.2433 0.755054
1199 1 1 15.0185 13.6293 36.8894
1997 1 1 14.2491 13.4547 1.03008
6905 1 1 17.5588 17.81 0.978744
609 1 1 17.8549 13.713 36.9732
753 1 1 17.9845 15.7312 36.3303
2159 1 1 18.5601 14.4786 0.304181
7560 1 1 1.27793 18.5819 1.34323
7163 1 1 0.0837753 16.1655 37.4715
8000 1 1 2.74802 17.8248 2.221
7930 1 1 3.31452 18.0625 0.371422
7886 1 1 5.76275 16.5944 0.20091
414 1 1 4.30298 15.2407 1.20037
7610 1 1 6.86342 15.2771 37.1239
7535 1 1 5.11388 18.2844 2.80768
738 1 1 6.62927 16.2063 0.847135
17 1 1 7.80954 15.8554 36.9381
419 1 1 7.50548 15.3226 1.58765
675 1 1 10.3681 16.3931 36.1423
2661 1 1 11.7172 17.447 1.7918
7597 1 1 13.2702 15.0224 0.531697
6914 1 1 11.5437 17.383 0.274118
7489 1 1 11.7858 16.2764 1.77263
7504 1 1 12.7735 16.6849 0.164295
7634 1 1 13.3164 16.1379 0.834035
7341 1 1 15.5667 16.5848 0.820511
837 1 1 14.4827 14.9468 0.115293
278 1 1 16.8986 16.6723 0.978261
40 1 1 2.35575 18.4364 1.34022
7122 1 1 2.28854 1.70607 0.543382
7964 1 1 5.3404 0.055174 0.477173
7416 1 1 4.89322 18.5026 37.0969
7267 1 1 4.25233 0.268075 0.211773
1485 1 1 6.92648 17.4268 1.05009
1584 1 1 7.94482 16.7157 0.290472
7614 1 1 7.78431 18.7555 36.5616
7980 1 1 7.49817 18.5678 0.344751
391 1 1 9.52489 17.0987 1.44103
7994 1 1 11.0857 0.183179 1.34255
377 1 1 10.6701 18.1072 1.90262
7929 1 1 10.587 16.213 0.507583
7149 1 1 12.85 0.129013 2.85521
7620 1 1 12.7233 17.1008 2.28203
7443 1 1 15.7355 15.6594 2.11789
5999 1 1 17.1801 0.0464196 0.454439
7188 1 1 17.7415 16.6665 3.55916
692 1 1 17.7874 18.3462 37.3515
7635 1 1 16.9131 18.6796 4.08121
7265 1 1 18.4716 1.63141 2.18101
1198 1 1 1.55385 18.3908 4.05158
430 1 1 1.83341 1.643 1.70283
7119 1 1 4.09826 1.44618 2.43405
686 1 1 3.02398 18.634 2.91206
7926 1 1 5.07425 0.780334 2.437
1168 1 1 7.16504 1.50648 2.01143
428 1 1 6.54736 18.242 1.72707
7532 1 1 6.07333 1.74679 2.26137
7619 1 1 9.32518 0.159787 3.34686
7698 1 1 7.77726 16.4575 2.79152
700 1 1 9.89178 1.34422 2.00281
55 1 1 7.77685 18.6769 1.82962
421 1 1 11.7565 0.507676 3.8409
726 1 1 10.6218 1.09408 2.69205
7040 1 1 14.2799 17.7012 2.93606
2020 1 1 15.5383 0.419196 0.882276
437 1 1 14.008 1.31864 1.21478
7547 1 1 16.5327 1.08529 1.70272
1964 1 1 17.08 1.51644 2.51478
398 1 1 0.064542 0.858642 1.22407
1636 1 1 0.00649471 2.72516 0.800848
1554 1 1 0.459456 1.7687 3.35585
2681 1 1 1.46992 2.66043 2.46382
1160 1 1 1.46941 2.11848 0.0235286
7896 1 1 3.8906 1.51647 3.91048
767 1 1 4.12351 2.98388 4.45596
1327 1 1 4.87483 1.24152 3.50238
7585 1 1 5.13552 2.02033 2.7269
7856 1 1 8.63422 0.929053 1.62132
1196 1 1 8.91457 0.881054 2.78158
2150 1 1 8.65544 2.87667 3.49715
1270 1 1 12.6713 1.69397 3.46132
224 1 1 10.8901 1.40521 4.12624
7938 1 1 11.2484 2.17876 2.43583
151 1 1 15.3667 3.05556 2.39196
1315 1 1 12.8908 1.50597 0.532427
1540 1 1 15.614 1.85737 1.42079
7914 1 1 16.8986 2.2014 3.61995
155 1 1 0.301874 2.52487 2.25348
75 1 1 0.649769 4.16297 37.4019
412 1 1 1.75299 3.42627 1.76073
7754 1 1 3.74195 3.82654 3.55845
913 1 1 2.84159 4.00166 3.10967
7996 1 1 5.00636 3.37693 2.52437
5739 1 1 4.96465 4.52084 1.24002
7651 1 1 6.05727 4.71082 2.78983
7661 1 1 4.73016 3.43955 1.22414
2046 1 1 5.70396 3.96826 3.55108
1373 1 1 7.16144 3.67752 1.90085
7280 1 1 5.95086 3.43202 1.58028
566 1 1 6.72526 3.97243 3.10083
7250 1 1 9.83947 3.4201 1.1264
209 1 1 8.14557 3.10362 2.311
7725 1 1 7.96117 3.3519 1.16773
7821 1 1 10.3549 3.08437 1.92499
537 1 1 11.5154 4.8273 2.33307
2103 1 1 8.5915 5.75211 1.29051
515 1 1 12.796 3.28461 1.81821
500 1 1 14.1621 4.46365 0.723726
1213 1 1 14.1231 2.21607 2.25558
1229 1 1 14.0791 3.31958 2.64489
432 1 1 16.3119 2.2766 1.97903
552 1 1 18.7807 2.96307 3.27995
2160 1 1 16.2879 3.06053 36.8254
7665 1 1 17.6913 1.79851 37.5531
1316 1 1 2.07705 4.46957 2.03497
1319 1 1 1.58284 5.42809 4.95952
324 1 1 0.72488 3.52817 3.11692
7715 1 1 5.13363 2.94761 3.63259
2208 1 1 4.03408 5.3201 5.28993
1885 1 1 4.31959 4.55002 0.185625
1776 1 1 6.49946 4.63948 1.65895
454 1 1 7.28466 4.60819 2.46399
1051 1 1 6.76447 5.56859 2.20854
6986 1 1 7.37216 4.70011 1.099
6617 1 1 11.4085 3.05907 1.25329
231 1 1 12.4629 5.48609 2.34013
505 1 1 13.8727 3.89099 1.69441
7827 1 1 13.6439 5.16188 1.44699
68 1 1 14.9642 4.05756 2.85684
554 1 1 18.233 3.31062 0.0622362
508 1 1 17.7859 3.40221 1.13678
1717 1 1 18.5834 5.28412 5.0829
7841 1 1 2.67975 7.2169 2.65678
884 1 1 17.7541 4.7533 1.5278
7648 1 1 5.18418 6.11522 3.18304
1369 1 1 5.63658 6.37531 0.764555
7823 1 1 4.89555 4.49598 2.96965
1287 1 1 6.04995 7.30563 2.08765
7748 1 1 6.86604 7.16223 0.991208
1339 1 1 7.84546 5.47504 2.57809
6659 1 1 8.9314 6.89615 4.17995
228 1 1 9.72749 5.32641 2.31368
551 1 1 11.1727 6.43691 2.99142
636 1 1 14.2385 4.44522 2.41783
1983 1 1 13.6348 7.0787 3.08657
1473 1 1 17.0427 6.33867 1.62908
387 1 1 15.768 6.03204 3.65822
1377 1 1 14.4906 7.92736 3.02874
978 1 1 16.1747 8.90378 37.5478
119 1 1 17.3872 3.6066 3.79519
2432 1 1 16.6681 5.40932 2.85858
6875 1 1 18.1646 6.88578 2.18308
1396 1 1 18.4013 8.13034 3.16614
2110 1 1 1.62817 7.77207 2.89707
175 1 1 18.7713 9.05107 3.66823
98 1 1 2.46192 8.25215 2.56563
489 1 1 2.42377 7.94199 0.635444
541 1 1 4.82124 8.31907 2.84258
1766 1 1 3.24424 8.97671 2.01412
7944 1 1 4.99708 7.39183 1.84448
102 1 1 7.47425 8.56969 2.60432
615 1 1 9.28171 7.96507 1.82196
53 1 1 9.54848 8.65471 0.741665
7335 1 1 6.76669 8.32264 1.74714
582 1 1 9.67425 6.52403 3.32735
7904 1 1 12.3364 7.74751 1.86139
1422 1 1 11.935 8.85468 2.56087
638 1 1 13.9472 9.25074 1.22178
498 1 1 13.7606 8.32927 1.3578
2154 1 1 15.6742 7.61717 2.8585
557 1 1 16.855 8.48262 36.5189
1637 1 1 18.0364 9.00875 2.48349
757 1 1 2.10434 9.31778 2.40834
1003 1 1 2.51625 10.9594 1.7154
637 1 1 5.69122 10.2554 0.510412
571 1 1 5.8467 10.224 1.56645
7541 1 1 4.9867 9.46774 0.428092
653 1 1 8.05498 8.79479 1.14968
95 1 1 7.01352 9.41967 4.67557
7788 1 1 8.84256 10.2062 1.79119
7334 1 1 9.93613 10.6477 2.45678
1532 1 1 10.4387 8.60594 1.35734
1826 1 1 12.5438 6.74159 2.77373
1072 1 1 10.8891 9.91044 1.90656
6997 1 1 13.8448 10.2426 0.296953
146 1 1 16.0735 10.1717 2.69127
1350 1 1 14.657 8.13141 2.03194
200 1 1 18.4975 9.91226 3.16072
162 1 1 17.023 10.3941 2.74019
444 1 1 17.8892 8.92215 1.40389
7897 1 1 1.12756 10.6005 0.80607
195 1 1 1.93961 10.732 3.68085
1878 1 1 1.1577 11.2548 3.16166
6683 1 1 3.83106 11.4716 1.30807
300 1 1 0.31138 11.3395 2.01949
1005 1 1 2.6265 10.3561 2.73222
1529 1 1 2.91963 12.2109 1.80445
126 1 1 3.57642 12.4197 2.61136
1337 1 1 3.71176 9.85998 2.92774
1450 1 1 6.58719 10.598 3.39089
1417 1 1 7.44131 10.113 2.21446
304 1 1 7.01518 9.16452 1.35775
1112 1 1 7.23608 12.0406 1.42417
532 1 1 7.08363 10.5029 1.34355
7822 1 1 8.55728 11.9337 3.81662
232 1 1 10.764 9.91721 3.36226
6599 1 1 16.0041 11.2769 0.878359
683 1 1 14.9849 11.0777 1.30575
1537 1 1 14.6362 11.9264 3.20523
669 1 1 16.7323 11.0806 2.09445
6719 1 1 15.6917 11.9933 3.54939
7249 1 1 17.6836 11.2857 2.7223
1486 1 1 2.03352 11.9383 2.62747
125 1 1 2.57199 12.7365 3.6356
1001 1 1 5.74739 9.8353 2.64649
1657 1 1 7.31038 10.6098 4.96327
530 1 1 6.29178 12.0322 0.672098
7953 1 1 6.16199 12.2997 1.77882
7531 1 1 8.01112 11.983 2.9623
1609 1 1 7.49257 9.98002 3.31005
381 1 1 10.1765 11.1031 1.59899
1070 1 1 11.4603 11.7981 1.93451
1069 1 1 10.3047 11.1717 3.32435
7945 1 1 12.4652 13.1607 2.05329
1193 1 1 13.1291 11.3529 2.00111
240 1 1 14.3459 13.6453 5.12679
7834 1 1 14.0024 13.2133 2.09572
6563 1 1 18.5838 10.7523 1.12191
1282 1 1 18.455 12.3594 1.43097
85 1 1 0.910912 12.2909 2.35812
1389 1 1 1.08046 13.9358 3.64442
590 1 1 2.34444 13.1836 1.23039
52 1 1 2.58662 12.8681 2.54781
1411 1 1 4.79623 13.945 1.02815
331 1 1 4.41851 12.3697 1.38143
7701 1 1 6.8114 13.341 3.43097
7487 1 1 6.93742 13.354 1.88328
6979 1 1 7.00135 15.535 2.42706
2215 1 1 7.91788 13.8211 1.9025
1545 1 1 9.02867 14.6586 2.62085
690 1 1 7.25528 12.594 2.43259
277 1 1 8.34993 14.7343 1.69458
572 1 1 10.3908 14.4308 2.5201
1187 1 1 12.6008 13.3037 3.10084
678 1 1 12.7686 12.2559 3.50234
7452 1 1 12.0579 13.0895 1.22993
7951 1 1 13.7182 14.3623 2.94186
273 1 1 14.9355 13.5131 4.09944
990 1 1 17.1664 13.4464 3.92684
1042 1 1 15.0316 13.8239 3.1338
7888 1 1 0.961813 13.2539 1.3408
7515 1 1 17.8624 13.534 3.04748
435 1 1 17.4216 14.3617 4.68449
1078 1 1 1.57787 14.0079 2.24399
643 1 1 2.11882 16.3389 2.41146
1446 1 1 3.01323 15.7475 1.69399
350 1 1 3.93933 18.4525 2.39054
7503 1 1 4.79292 14.8193 2.44168
7123 1 1 7.67112 17.6587 1.78646
1211 1 1 5.15105 17.2432 1.16821
6 1 1 7.85292 14.4153 3.80873
687 1 1 10.4121 15.4166 2.59367
1139 1 1 12.4075 14.136 2.50878
411 1 1 10.791 16.3892 3.24986
1107 1 1 14.0298 15.2864 2.35464
6720 1 1 13.9276 15.2667 1.26474
259 1 1 14.9274 15.7386 2.88219
7893 1 1 14.681 14.8595 3.437
285 1 1 15.4957 13.902 1.89444
234 1 1 15.9669 14.7187 0.911343
693 1 1 18.403 16.6926 2.39425
663 1 1 0.300909 13.7449 2.89635
2367 1 1 1.94497 17.0914 3.25592
7968 1 1 18.45 15.3906 2.16098
1086 1 1 0.6849 16.1817 2.12699
899 1 1 2.95245 17.9869 3.72798
1895 1 1 3.96711 17.1075 1.9743
374 1 1 5.78524 13.5296 3.30397
7455 1 1 5.87655 15.9279 1.69052
325 1 1 5.1817 16.6704 2.07586
1453 1 1 6.66559 16.5323 1.83822
1226 1 1 10.0854 15.5306 3.91805
765 1 1 7.56044 15.8248 0.673608
1131 1 1 8.13608 17.9822 2.78931
1908 1 1 9.3776 15.6787 2.76472
1133 1 1 10.0076 17.2396 2.62679
6750 1 1 14.9531 15.0214 1.91641
7838 1 1 15.0871 17.4918 2.12861
375 1 1 14.8368 16.3363 1.76363
7777 1 1 16.4297 14.501 2.37325
7993 1 1 17.146 13.7713 2.32081
7903 1 1 17.5721 15.9302 1.43941
443 1 1 16.8232 15.9793 2.43408
163 1 1 16.8019 15.2354 0.976595
2037 1 1 0.733121 15.3226 1.5773
809 1 1 18.4985 16.45 4.11499
1474 1 1 0.593209 17.1309 2.63562
847 1 1 0.900788 0.59435 1.94069
1713 1 1 2.12247 0.358917 2.24662
310 1 1 3.22176 0.290407 0.554291
207 1 1 4.34534 18.0497 1.43236
814 1 1 10.0818 18.7558 2.41785
740 1 1 9.20079 17.7155 2.34774
1047 1 1 8.32336 16.2902 1.94376
820 1 1 11.4005 16.8297 2.53864
708 1 1 13.7117 16.1222 1.80699
31 1 1 13.1382 15.2393 2.6914
7508 1 1 11.0764 18.2961 3.79361
1143 1 1 14.1836 18.2076 1.4709
328 1 1 16.2373 17.3436 1.86768
7044 1 1 15.6834 0.898445 3.20578
7844 1 1 18.1756 18.2351 3.66118
7992 1 1 0.452203 18.5605 4.273
1200 1 1 0.921667 17.8895 3.27487
843 1 1 0.984992 0.0942838 3.08554
2029 1 1 0.251337 0.852265 4.57779
800 1 1 1.98215 18.0076 2.88734
1140 1 1 2.47245 0.531696 6.15057
37 1 1 5.99955 18.438 3.29885
115 1 1 4.39875 17.5819 3.51789
248 1 1 6.54904 0.73166 5.3087
43 1 1 6.33937 0.315092 2.68528
1461 1 1 6.81169 0.196991 3.73216
7616 1 1 8.62423 18.5287 3.88947
390 1 1 9.94114 18.2311 4.18406
7656 1 1 10.3949 0.324157 3.84009
7989 1 1 10.2034 0.879135 4.86953
7855 1 1 12.7488 0.945822 2.17606
1973 1 1 10.214 0.565005 5.8371
32 1 1 12.7898 0.527177 3.89286
7 1 1 11.9142 0.0456663 4.99713
7155 1 1 13.1371 2.18906 4.90732
7911 1 1 12.7409 18.2282 5.33747
948 1 1 13.8443 0.990147 2.591
157 1 1 15.1951 2.61099 4.71177
382 1 1 15.47 0.0222097 2.22886
7887 1 1 16.1584 18.3767 1.48328
33 1 1 16.5754 18.5806 2.96564
2347 1 1 0.0587693 0.786615 3.56164
792 1 1 18.2089 2.69665 4.12721
1481 1 1 17.8801 0.873593 2.00866
1576 1 1 17.4631 1.38931 4.4104
1591 1 1 18.1658 18.7967 4.73721
480 1 1 2.05489 0.444083 3.84522
7601 1 1 0.727573 1.56431 2.06802
1514 1 1 1.65545 1.71198 4.29199
96 1 1 3.54428 2.73309 3.38657
7848 1 1 2.88946 1.15826 3.18703
7678 1 1 6.38647 1.8393 4.42745
2136 1 1 5.43089 1.98617 4.05655
603 1 1 4.12609 2.68517 1.95017
611 1 1 6.01194 2.94666 2.54911
7700 1 1 6.27744 2.55637 3.42872
1932 1 1 5.9022 0.894401 3.36543
6673 1 1 8.57682 0.880204 3.96383
1206 1 1 6.96429 2.41461 2.54177
385 1 1 9.54327 2.60082 3.79361
1138 1 1 10.9015 18.6995 4.65168
149 1 1 12.7861 1.18824 5.38364
2109 1 1 10.241 2.06005 4.54244
7776 1 1 12.2895 1.88778 1.54247
2232 1 1 12.7232 3.67201 3.00107
147 1 1 11.5388 2.34877 4.40153
1223 1 1 13.7379 1.06275 4.18958
7478 1 1 14.7193 0.591051 1.52214
2038 1 1 14.3306 0.381519 3.53332
780 1 1 15.9866 2.02334 3.07629
1602 1 1 18.5059 4.2234 2.6324
321 1 1 3.411 2.93819 5.24368
1194 1 1 1.81464 3.63205 2.84734
6767 1 1 4.81141 3.77442 4.4098
528 1 1 8.13508 4.17552 2.48748
7524 1 1 5.34342 2.93985 4.70285
455 1 1 6.62816 3.49276 4.49466
1381 1 1 7.32425 2.28391 4.03281
887 1 1 7.86957 2.05587 2.81377
173 1 1 10.387 4.51151 1.73194
616 1 1 10.7675 2.63698 3.48114
850 1 1 12.4555 3.59763 4.55135
651 1 1 12.6738 4.36722 2.15078
1269 1 1 13.6673 4.07909 3.15933
2099 1 1 16.054 3.29882 3.09816
1472 1 1 14.4895 3.80183 3.85385
401 1 1 15.8232 4.69569 2.80754
874 1 1 0.440123 3.61424 1.90128
139 1 1 16.4474 5.6496 4.64402
924 1 1 0.275119 4.54306 4.01749
7638 1 1 18.681 6.29677 5.41894
1158 1 1 0.818155 4.52525 2.33414
47 1 1 18.4322 5.17032 3.54043
1323 1 1 6.04843 6.58796 2.74502
450 1 1 4.98111 5.30625 3.61154
1280 1 1 5.65719 5.40466 5.45371
1774 1 1 5.24659 4.62631 4.42347
1850 1 1 5.71658 6.34757 1.76895
1375 1 1 7.01288 4.57362 5.08177
239 1 1 8.79673 4.87053 2.75419
1658 1 1 9.67228 3.57476 4.30642
7762 1 1 9.19557 2.7865 4.93038
7745 1 1 11.5949 3.47428 3.48838
898 1 1 11.2714 4.42921 3.23274
180 1 1 12.0374 5.51511 3.28438
446 1 1 12.859 4.92449 3.40677
470 1 1 13.5555 6.62014 4.8201
1863 1 1 13.6199 6.49914 2.13322
906 1 1 13.4149 5.90462 3.43308
1338 1 1 15.0411 4.58888 4.4397
1670 1 1 16.7752 6.30915 3.55074
954 1 1 18.0354 3.33332 2.46479
1443 1 1 0.806385 7.55683 4.27
206 1 1 0.870503 6.61365 2.77219
7228 1 1 0.805874 8.37149 3.55907
45 1 1 1.48906 6.29154 3.90188
2357 1 1 18.7749 5.28261 2.40013
580 1 1 2.26874 6.23036 3.0063
1409 1 1 4.53921 6.47102 2.56948
82 1 1 3.78931 6.51255 3.49638
1376 1 1 6.38564 4.56168 4.20463
936 1 1 7.52949 3.44889 3.86432
1296 1 1 8.24933 6.05593 4.16178
1045 1 1 8.71091 6.50373 2.83983
1378 1 1 9.87508 4.97952 4.81116
1344 1 1 9.05347 5.81142 3.78641
575 1 1 10.8059 6.18274 4.44902
1039 1 1 12.835 6.43118 3.9282
159 1 1 12.9244 7.54897 3.96839
7712 1 1 14.3602 5.22194 3.00316
1709 1 1 15.1417 6.642 3.14536
7397 1 1 16.8915 7.38073 4.56731
1265 1 1 16.1324 6.43689 2.29588
7432 1 1 16.2357 7.7293 1.54942
1231 1 1 18.2503 6.12685 2.87153
996 1 1 1.70005 8.77043 3.39508
1314 1 1 2.57941 7.67671 1.62835
848 1 1 2.48351 7.95837 3.72493
983 1 1 3.75765 7.52707 3.54896
1262 1 1 6.97665 6.75244 2.25731
925 1 1 4.56297 8.46401 3.97559
241 1 1 6.81479 7.47922 3.45476
1089 1 1 6.92241 5.99092 3.17026
568 1 1 5.99138 8.81622 3.10938
7659 1 1 7.76055 7.94027 3.46351
7743 1 1 9.32162 8.61148 3.18761
539 1 1 9.03727 7.36341 5.42157
462 1 1 8.8514 8.08133 4.23128
1478 1 1 10.3445 7.16106 3.27388
1925 1 1 11.8922 7.82078 3.39372
7428 1 1 12.8896 7.18783 0.868301
536 1 1 12.9721 8.97723 3.76172
956 1 1 14.527 7.6208 4.339
2594 1 1 15.3022 8.16959 3.83648
872 1 1 13.2863 12.4475 2.66154
160 1 1 17.2874 6.58198 2.63194
960 1 1 16.2669 8.80466 2.80778
7603 1 1 0.156224 9.87631 4.3386
959 1 1 0.146909 7.4372 3.4732
7525 1 1 1.4925 11.4894 1.36361
1419 1 1 0.762901 10 3.18399
441 1 1 3.44792 7.11787 5.18524
1427 1 1 3.73077 8.56529 3.23593
7482 1 1 4.40152 9.29515 2.41441
7322 1 1 5.75946 9.3792 1.07376
1163 1 1 4.71394 9.48885 3.48986
573 1 1 6.58936 9.33658 2.32053
685 1 1 6.8167 8.41803 5.24484
358 1 1 6.29463 8.93865 4.09577
177 1 1 7.19886 8.94265 3.58328
2065 1 1 10.3596 8.03408 2.81361
7096 1 1 8.58678 9.3553 3.25662
618 1 1 12.0207 9.89009 3.33948
1100 1 1 12.9113 10.2868 4.66693
276 1 1 13.8975 8.71681 2.58918
108 1 1 13.3245 11.1742 3.49793
602 1 1 14.7638 8.41138 0.591394
1033 1 1 14.3916 8.98584 3.70972
271 1 1 15.8729 8.82922 1.84334
1798 1 1 15.8131 9.29084 3.67753
1631 1 1 17.315 9.76764 1.67221
1439 1 1 0.298345 10.6961 4.94219
1113 1 1 17.5321 8.32064 3.61715
639 1 1 18.334 9.95706 5.2403
648 1 1 0.283254 10.7459 3.68217
7921 1 1 2.64532 9.71823 3.58033
201 1 1 3.29219 10.0028 1.97237
365 1 1 3.18689 10.7485 3.44647
647 1 1 4.7227 10.3304 2.37955
7791 1 1 5.58389 8.73224 1.95628
564 1 1 5.87927 10.8756 4.1778
357 1 1 6.83339 10.6815 6.26392
586 1 1 8.1705 9.06714 2.2237
1049 1 1 7.89955 10.4292 5.97397
492 1 1 8.71722 8.49124 5.10631
2244 1 1 11.8709 11.4637 3.54784
253 1 1 9.31317 9.45636 2.39646
1825 1 1 10.9719 10.5409 4.17217
1074 1 1 14.9223 10.1844 4.06387
1942 1 1 14.0119 10.4728 1.60906
235 1 1 16.4483 11.139 3.4207
1676 1 1 13.9112 13.2083 3.44789
7480 1 1 16.9385 10.0007 4.28591
967 1 1 1.42177 12.2248 3.89857
1115 1 1 1.51448 10.9097 5.32953
7403 1 1 3.85164 13.0699 3.52078
684 1 1 2.91596 11.6275 5.6984
2755 1 1 1.68351 13.0922 3.18571
627 1 1 4.6238 12.4393 3.90218
1820 1 1 5.31654 10.3945 3.44399
342 1 1 5.98914 11.1789 2.42755
290 1 1 6.93415 12.5262 4.78663
526 1 1 7.956 11.1811 4.34894
315 1 1 7.86598 8.99539 5.16696
1175 1 1 7.69074 12.6735 5.61752
2017 1 1 10.946 11.0111 2.40215
1833 1 1 10.6609 9.16841 4.47025
1542 1 1 8.64756 13.1606 2.46517
1103 1 1 12.369 11.4768 4.94373
878 1 1 13.46 11.629 5.41
600 1 1 12.0129 10.6314 4.30032
1046 1 1 14.159 9.56744 4.50823
1151 1 1 12.9801 10.6247 5.71593
265 1 1 16.4075 12.2929 2.99739
877 1 1 0.191897 11.7759 2.98206
1077 1 1 0.724511 13.0957 4.30932
7835 1 1 2.48818 11.7307 4.48859
6379 1 1 3.75978 13.9457 3.03271
2012 1 1 5.94537 11.9389 4.71139
1010 1 1 5.7158 13.3473 2.08106
2122 1 1 6.28933 14.448 3.748
1504 1 1 4.07345 14.842 4.40259
1301 1 1 5.67062 12.999 4.2069
813 1 1 5.61573 14.7325 1.72514
1512 1 1 9.24928 12.8915 4.303
2062 1 1 11.0948 13.185 2.21168
64 1 1 10.9107 14.4033 3.69217
823 1 1 10.1956 13.323 2.96139
379 1 1 11.8533 12.7623 2.87797
1432 1 1 12.5002 12.4969 4.72283
968 1 1 12.184 11.6284 6.01029
1445 1 1 17.7194 12.9723 4.73669
2329 1 1 18.4324 13.2476 5.5446
7870 1 1 0.184344 15.147 4.48197
688 1 1 18.4891 13.9747 3.79282
724 1 1 0.418494 15.08 3.42203
1638 1 1 3.46742 15.5956 3.18047
853 1 1 2.46365 14.5421 2.60015
1082 1 1 3.10388 16.8404 2.86492
1136 1 1 5.45254 13.9503 4.47188
7613 1 1 8.19399 15.442 2.8823
2824 1 1 9.1113 15.2256 3.61765
825 1 1 7.81568 12.749 3.7705
468 1 1 9.93803 14.5042 3.96687
1130 1 1 10.3247 13.5679 4.09504
7704 1 1 11.3572 14.674 2.81461
991 1 1 13.239 13.5674 4.4856
1912 1 1 11.4025 14.6901 4.63033
982 1 1 14.4874 15.6565 4.20999
7147 1 1 13.8798 14.8282 4.84194
629 1 1 17.1447 14.505 3.58254
670 1 1 16.3389 13.8253 3.27399
1120 1 1 16.3407 13.8457 4.70929
1928 1 1 18.0734 14.6026 3.01832
1406 1 1 17.4476 17.7745 4.62515
1087 1 1 1.07984 16.0264 3.79282
816 1 1 2.27814 16.5436 5.23391
2837 1 1 2.33453 16.0162 3.39463
370 1 1 6.01713 13.7993 5.4668
1729 1 1 7.19245 15.2533 3.4448
937 1 1 7.25582 17.1244 4.28325
734 1 1 6.61748 16.1281 4.249
7627 1 1 9.42135 16.6277 3.57883
1094 1 1 7.9036 17.9557 4.71802
1583 1 1 10.6988 17.3388 4.33115
7550 1 1 11.8341 16.2857 3.35176
423 1 1 12.7955 16.2652 3.70652
317 1 1 12.2831 14.8803 3.84027
7146 1 1 12.4573 15.9262 2.61344
465 1 1 13.8262 15.7747 3.32496
769 1 1 15.5003 14.7944 2.87286
20 1 1 16.4529 16.8416 3.52141
822 1 1 15.8804 16.7086 2.60024
1272 1 1 16.2866 15.7582 3.38769
283 1 1 17.4107 16.7576 4.71565
1149 1 1 18.1007 15.3754 3.72111
1247 1 1 17.1398 15.4134 4.74957
1234 1 1 18.1468 17.0187 5.34141
6674 1 1 1.40678 16.5843 4.68439
888 1 1 3.85683 18.0751 4.60976
1650 1 1 3.04334 17.0107 3.96538
7562 1 1 6.84027 16.8489 3.11584
7210 1 1 5.71375 15.0716 2.90828
727 1 1 3.77101 0.488032 3.0226
293 1 1 6.09567 17.5357 2.6378
363 1 1 4.8981 16.0152 3.10382
841 1 1 7.85518 0.408002 3.39199
171 1 1 7.29602 18.5735 2.79222
496 1 1 7.8332 0.896899 2.58332
504 1 1 8.78356 17.2263 4.28201
7150 1 1 10.3181 18.1513 5.36322
838 1 1 11.7295 17.808 4.73917
2026 1 1 9.59289 17.745 3.41875
6832 1 1 12.0886 17.7763 2.78378
427 1 1 15.2005 18.3819 3.2305
7551 1 1 15.8527 17.9506 4.04176
869 1 1 15.2401 0.625517 4.83904
1590 1 1 17.0386 18.7971 2.04165
3143 1 1 16.3557 18.7063 5.07176
794 1 1 0.108908 18.4991 6.27027
7883 1 1 0.462664 1.15213 5.69149
1526 1 1 18.7134 17.5559 4.53398
1448 1 1 3.69718 0.58595 6.825
728 1 1 3.3863 0.841133 5.21729
778 1 1 5.55747 0.800175 5.10204
452 1 1 5.13127 18.5137 6.21602
1122 1 1 5.52889 2.01472 5.08257
860 1 1 5.2232 0.0308686 4.21647
1333 1 1 7.55261 1.23866 5.55682
971 1 1 5.83492 18.1832 4.64962
1582 1 1 8.34684 0.806026 5.80371
38 1 1 6.82035 18.2524 4.44728
829 1 1 9.43615 0.2895 4.53037
605 1 1 7.73189 0.336514 4.66069
671 1 1 11.2659 0.62626 5.50347
1345 1 1 14.8129 1.69608 5.91116
655 1 1 14.5559 18.1704 5.65343
1986 1 1 14.299 17.2094 6.32197
409 1 1 15.7575 1.19161 5.77329
1152 1 1 14.5852 0.45763 5.69254
1240 1 1 17.3064 18.7865 5.72309
312 1 1 16.6894 0.850964 5.45628
1954 1 1 18.4228 0.936116 6.56114
2365 1 1 1.85578 2.70516 4.91459
109 1 1 1.73403 1.58852 2.98157
1171 1 1 1.35709 1.85198 5.9881
763 1 1 4.43097 0.580881 5.35043
130 1 1 4.10081 1.55786 6.05539
104 1 1 4.78514 2.71166 5.66075
1675 1 1 4.47602 1.80931 5.07211
1328 1 1 3.107 0.112119 3.90719
376 1 1 6.73653 1.49077 3.19081
1216 1 1 5.44805 2.28998 6.56626
7997 1 1 8.32287 2.22134 4.60524
1336 1 1 9.51476 1.17056 4.00543
946 1 1 12.4215 1.58159 4.36808
71 1 1 10.7327 1.64983 6.22316
947 1 1 8.54549 2.07569 6.23798
511 1 1 11.8266 3.44006 5.99871
2867 1 1 12.997 2.85023 6.20137
1037 1 1 15.2468 1.80044 3.87302
2323 1 1 15.0049 2.81681 3.62622
2392 1 1 16.0696 3.12342 5.27657
1205 1 1 16.137 2.71992 4.06836
1594 1 1 18.1181 0.807588 5.45171
867 1 1 0.285433 3.39251 4.22044
7607 1 1 0.251708 4.80147 5.89633
1129 1 1 2.61762 3.4624 4.0731
491 1 1 3.92887 3.96878 5.03416
1245 1 1 3.81592 2.52916 6.06251
520 1 1 5.42712 3.8998 5.34451
885 1 1 6.52864 3.03711 5.43821
1331 1 1 7.4243 3.26827 5.06284
1308 1 1 8.32439 3.81432 4.40711
588 1 1 8.49206 3.05678 5.77444
862 1 1 10.951 2.8908 5.41646
576 1 1 11.4559 4.33973 5.34591
2075 1 1 12.8552 3.69713 6.85962
842 1 1 12.675 5.83873 5.83257
514 1 1 13.0842 4.72379 4.47032
1458 1 1 14.674 2.90159 5.60422
2471 1 1 15.3148 3.63648 4.55749
859 1 1 13.2406 3.89368 5.7544
745 1 1 17.4017 5.05027 3.61064
756 1 1 17.671 4.64171 5.40782
799 1 1 1.20661 2.48696 3.67628
752 1 1 0.429249 5.87781 3.62945
1738 1 1 18.0436 5.71788 6.5356
2285 1 1 2.89765 5.00791 4.95879
729 1 1 1.79998 3.64655 5.98135
915 1 1 2.71667 3.81819 5.17135
2054 1 1 4.30448 3.86173 6.19818
2602 1 1 5.38354 4.24307 6.41167
1098 1 1 7.52418 6.57716 6.02875
904 1 1 6.60028 5.4919 5.72181
1255 1 1 8.06433 4.79219 5.43644
1416 1 1 8.15657 5.19332 3.49616
555 1 1 11.9029 5.46369 4.31776
469 1 1 10.0304 5.64298 4.0692
140 1 1 11.0957 4.7397 4.44866
1413 1 1 15.6483 4.75097 5.35583
426 1 1 12.5624 4.71855 5.3883
1992 1 1 13.5966 3.56024 4.12256
1672 1 1 15.3125 5.63097 4.58583
1728 1 1 15.97 7.11934 3.75796
1202 1 1 18.7149 6.86992 4.36283
525 1 1 16.0815 4.03339 3.82607
65 1 1 18.1777 3.91849 6.04121
7931 1 1 18.7862 8.57107 4.6738
1241 1 1 0.301115 7.73598 6.56872