ITEM: TIMESTEP
400
ITEM: NUMBER OF ATOMS
8000
ITEM: BOX BOUNDS pp pp pp
0.0000000000000000e+00 1.8820720577620570e+01
0.0000000000000000e+00 1.8820720577620570e+01
0.0000000000000000e+00 3.7641441155241139e+01
ITEM: ATOMS id mass type x y z
547 1 1 18.7114 18.0419 2.01177
835 1 1 1.21423 2.13879 0.801784
319 1 1 2.86096 1.12989 0.740646
96 1 1 1.81007 1.1335 0.715339
917 1 1 3.59468 1.44325 1.33396
796 1 1 3.9846 2.6275 1.70582
38 1 1 5.93222 1.55864 1.09592
696 1 1 6.06665 0.140111 0.702716
775 1 1 6.22929 1.95493 36.983
1208 1 1 6.68563 1.26737 0.477345
1178 1 1 6.87865 18.6271 37.5816
7287 1 1 8.90684 1.01983 1.12768
814 1 1 10.9753 2.09003 0.256753
838 1 1 10.7505 1.87317 3.04086
7861 1 1 11.113 18.6411 1.79038
7938 1 1 13.3586 0.903995 1.91332
116 1 1 12.6927 1.4765 37.0414
501 1 1 12.7866 1.84354 1.37701
7230 1 1 15.5234 18.118 36.7333
7549 1 1 14.6147 0.738777 1.08755
1142 1 1 16.6614 0.913381 1.03614
7560 1 1 17.789 0.484086 0.346702
34 1 1 18.5162 1.01873 2.10312
753 1 1 17.1145 17.2115 1.30231
430 1 1 0.0735161 1.96843 0.759475
109 1 1 2.56499 2.08667 1.15199
1675 1 1 2.36448 1.64462 3.49335
475 1 1 2.51892 3.11468 1.46807
1160 1 1 2.06578 2.24042 0.320434
1319 1 1 2.45639 2.59233 2.99794
841 1 1 4.79247 3.25869 1.57304
7316 1 1 2.92788 3.01602 37.2448
493 1 1 4.78848 1.89176 37.5088
405 1 1 7.07988 2.11236 1.94347
5 1 1 9.47871 1.81526 0.416112
7646 1 1 7.93137 1.86881 0.433343
7 1 1 9.73758 2.93455 1.95084
17 1 1 8.88674 1.63771 37.0686
1385 1 1 10.3191 1.71772 2.11247
421 1 1 11.7415 0.575529 1.04333
18 1 1 9.8688 2.48625 37.2998
1270 1 1 12.7877 2.45804 0.533979
149 1 1 14.0223 2.25938 0.596329
7987 1 1 15.5477 0.959669 0.649723
113 1 1 15.8229 2.14131 0.629988
39 1 1 14.7799 1.57617 0.372509
746 1 1 18.1464 2.46556 0.39663
7601 1 1 18.3682 2.98994 1.89451
7633 1 1 0.0676573 2.0964 37.2494
2432 1 1 1.48985 3.22241 0.472471
1237 1 1 0.984448 2.54315 37.5204
209 1 1 1.95732 4.18532 1.19839
7647 1 1 0.858502 3.46652 1.4435
7253 1 1 4.43105 2.91568 2.66071
1239 1 1 4.00597 4.19547 2.17261
7607 1 1 3.19884 3.57265 2.20798
7644 1 1 7.7758 3.54523 1.0643
6856 1 1 6.5445 3.50222 36.8634
455 1 1 5.44678 3.46675 0.845304
7699 1 1 8.09315 4.3916 0.552867
765 1 1 8.76806 3.25251 1.99032
633 1 1 9.44702 3.82069 37.3389
1295 1 1 8.56428 3.03513 0.581726
779 1 1 10.6621 5.09366 0.667214
385 1 1 10.2937 4.16037 0.549483
461 1 1 12.5815 3.74895 0.845264
7303 1 1 11.7576 3.09025 0.182616
508 1 1 14.9079 4.49158 0.477524
978 1 1 13.9599 6.20189 0.433096
65 1 1 15.6422 3.78773 0.124413
420 1 1 16.6499 3.83675 2.83946
7636 1 1 16.7925 2.89454 0.253134
786 1 1 18.53 4.84718 37.4372
356 1 1 17.4693 3.38113 0.996695
479 1 1 0.774161 4.7917 37.3322
6956 1 1 18.6529 6.87367 37.2026
324 1 1 0.595929 4.13871 0.816337
362 1 1 1.19953 7.13343 1.1728
488 1 1 3.26228 6.33994 1.94425
886 1 1 4.73296 6.48595 2.44319
445 1 1 3.54167 5.69906 0.903125
3 1 1 4.89693 5.25652 0.932787
1327 1 1 6.04243 4.9748 1.81949
7250 1 1 6.6267 4.78755 2.77994
1310 1 1 6.84964 5.26311 36.6615
1026 1 1 6.91337 5.50235 0.19685
533 1 1 8.58311 6.35603 35.7864
171 1 1 8.25388 5.59737 0.681906
938 1 1 10.5725 4.62183 37.2534
7002 1 1 9.21078 6.00666 0.250261
934 1 1 10.4688 3.88732 1.74333
505 1 1 14.4364 6.25974 1.53602
1309 1 1 13.897 4.91527 0.853094
7855 1 1 12.6902 4.75781 1.04268
7392 1 1 14.811 5.05056 36.5413
7603 1 1 16.472 6.4693 2.0748
2197 1 1 16.0041 4.68299 0.951734
111 1 1 15.0886 5.52065 0.614874
442 1 1 18.1195 5.59676 0.544121
478 1 1 1.40122 6.04367 0.786578
7249 1 1 1.70887 6.91117 37.6053
440 1 1 3.04049 6.75443 37.422
528 1 1 3.70187 5.94623 2.91595
1461 1 1 5.98486 6.02166 2.10926
1366 1 1 4.83779 7.28922 37.5067
7819 1 1 6.2811 8.63014 0.297847
7731 1 1 5.78249 7.4459 0.79865
1417 1 1 7.57652 7.17975 1.44464
7659 1 1 8.12888 7.15883 0.559998
537 1 1 10.269 5.87744 0.110659
623 1 1 10.5087 5.94331 1.3524
973 1 1 9.87005 6.82796 0.946476
538 1 1 12.8402 6.81355 0.80917
591 1 1 11.5638 5.57352 1.00281
7591 1 1 13.3411 6.17732 1.43476
68 1 1 15.4942 6.19498 1.71847
579 1 1 15.1417 7.35724 37.4706
7754 1 1 17.0155 6.55343 1.16914
554 1 1 15.2498 6.66712 2.45377
7641 1 1 18.0054 7.20702 1.09175
159 1 1 15.8181 8.409 1.06817
7879 1 1 1.47692 7.82439 0.431088
7239 1 1 0.950302 7.44337 35.5123
580 1 1 2.2723 7.44856 1.01458
1369 1 1 2.25688 4.83097 37.0626
1048 1 1 3.50057 8.34589 1.5404
6896 1 1 4.32017 8.18412 2.19999
653 1 1 7.03437 8.68521 1.26206
647 1 1 6.24236 9.21536 1.7919
539 1 1 8.08395 8.10028 1.8949
137 1 1 7.73269 8.5554 36.4606
228 1 1 10.8679 8.58766 0.744653
1422 1 1 11.8988 8.41929 2.63887
575 1 1 11.545 7.79513 1.14658
462 1 1 11.3579 6.47695 1.55158
585 1 1 11.5434 7.27686 0.172884
532 1 1 11.4909 9.19827 37.5495
7432 1 1 13.0281 8.60095 2.41674
7821 1 1 11.5043 4.09284 0.500425
7776 1 1 13.1557 6.64784 2.3701
188 1 1 12.4968 7.86903 0.596144
556 1 1 14.7831 7.32261 0.931769
1031 1 1 14.667 8.23177 37.099
519 1 1 17.2396 7.89461 37.614
1473 1 1 15.9056 7.08332 1.15061
187 1 1 16.1088 5.90101 0.687186
959 1 1 0.278942 7.96638 1.26592
7924 1 1 0.882634 8.56057 37.4259
7841 1 1 2.4409 9.75293 0.974779
197 1 1 1.80624 8.6156 1.38325
1314 1 1 1.84495 8.83248 0.240287
164 1 1 2.78845 8.46203 0.801198
1053 1 1 4.60816 9.34631 1.62158
215 1 1 5.25107 9.06825 0.855117
300 1 1 3.55526 10.6284 1.92174
7748 1 1 7.40172 9.13279 2.09749
7011 1 1 6.70466 10.53 37.2216
645 1 1 5.09854 11.1253 0.178748
95 1 1 8.86697 9.7293 0.695118
618 1 1 8.89716 7.62893 1.52407
178 1 1 9.86966 9.64818 0.829347
91 1 1 10.928 8.41971 2.16147
7772 1 1 11.3008 10.1173 0.516691
607 1 1 12.4041 10.757 36.3948
7912 1 1 12.8363 8.42236 37.2291
223 1 1 13.329 11.2148 1.27181
230 1 1 13.3202 10.0562 36.4542
444 1 1 15.5633 10.6048 0.967375
1072 1 1 15.5383 8.05465 2.55713
636 1 1 15.1256 9.17611 1.1238
114 1 1 16.9431 11.2056 0.140167
183 1 1 16.4551 9.7051 1.43622
7758 1 1 18.4589 8.4617 2.31393
281 1 1 0.13684 9.79872 0.483334
7525 1 1 0.256782 9.10599 1.46897
962 1 1 0.952791 9.86825 37.627
7849 1 1 2.24197 9.71603 37.2072
7854 1 1 3.00292 10.5457 0.827067
243 1 1 4.02546 11.6484 0.780127
7891 1 1 6.0885 11.1593 0.926923
7541 1 1 5.82723 11.1955 37.1053
7822 1 1 6.8335 10.1226 2.39432
1148 1 1 7.25886 11.1336 0.561973
7864 1 1 9.16529 10.9773 37.1613
7862 1 1 8.30515 10.8333 0.1048
1105 1 1 10.9557 11.8879 2.33371
1979 1 1 9.62095 11.2984 0.691127
142 1 1 12.1617 11.0758 0.689173
7904 1 1 12.3161 9.11147 1.6248
993 1 1 12.575 9.71238 0.79805
1507 1 1 13.1117 12.6058 3.10737
235 1 1 12.5433 10.3935 1.5683
6316 1 1 13.2103 9.89386 37.5234
7480 1 1 16.2683 10.5651 2.19336
6675 1 1 14.5407 9.77983 36.9847
144 1 1 14.5031 9.13525 0.303554
6997 1 1 16.6033 10.5899 0.880805
7350 1 1 0.848082 10.8599 0.960609
238 1 1 17.9536 10.5711 0.298994
1282 1 1 2.02481 13.3032 1.47313
1136 1 1 4.22499 12.7192 0.166711
685 1 1 2.88558 12.5865 1.34422
7847 1 1 5.96044 12.8424 0.66711
175 1 1 4.11272 11.9162 2.51936
296 1 1 7.21465 13.4343 37.4599
970 1 1 6.64997 11.8689 37.2309
7499 1 1 7.52677 12.6329 36.9815
1102 1 1 7.93586 12.9495 1.83189
1509 1 1 8.61225 12.4186 0.914058
660 1 1 9.93099 12.1883 0.198429
7516 1 1 11.1309 13.2208 0.795021
333 1 1 13.1469 11.1148 0.00830084
1100 1 1 11.9723 12.1671 0.602364
7777 1 1 12.594 12.8994 37.472
1182 1 1 13.7846 12.7166 0.109401
271 1 1 13.4462 11.9374 2.21246
7512 1 1 13.9714 11.6063 0.482314
683 1 1 14.2306 11.7957 1.49336
285 1 1 14.5536 13.127 0.572834
280 1 1 16.0247 12.1801 37.6224
4 1 1 17.4346 11.3266 1.19211
237 1 1 0.0772711 12.4564 3.09599
7880 1 1 18.5752 11.7299 1.21219
648 1 1 1.1424 14.6846 2.08367
202 1 1 2.50922 11.4786 0.936062
7921 1 1 2.41248 14.3802 2.21818
1173 1 1 2.70609 14.1265 1.07011
246 1 1 3.03708 13.4654 36.3216
7817 1 1 3.59813 11.7903 1.69064
290 1 1 4.28325 13.8261 1.72534
7535 1 1 5.22399 13.3659 0.324142
287 1 1 7.03932 12.0831 1.49994
229 1 1 8.26926 13.3559 0.784974
1070 1 1 9.26765 14.0588 1.23151
1573 1 1 8.78831 14.3274 37.6323
1908 1 1 9.14011 13.2286 1.85538
7502 1 1 9.80226 14.309 37.056
7610 1 1 8.44999 14.685 1.07212
7983 1 1 10.8829 14.2371 36.5134
1069 1 1 12.7699 13.4526 0.565933
204 1 1 17.4922 13.2397 0.0859118
1108 1 1 17.5198 12.8694 2.33306
6746 1 1 17.0576 14.8278 35.2565
154 1 1 0.131541 13.1509 2.22437
194 1 1 0.346905 16.8619 0.403958
873 1 1 0.883316 15.3353 0.615092
1529 1 1 2.80453 15.0303 0.590221
7574 1 1 3.40604 14.4681 0.129305
85 1 1 1.63194 14.0097 0.693936
7930 1 1 5.43403 16.4087 1.08845
7897 1 1 3.3704 15.2735 1.62192
345 1 1 7.57634 14.4131 0.229046
344 1 1 9.41733 15.0822 1.42456
738 1 1 7.82175 15.7208 37.0835
7929 1 1 11.0249 16.7076 37.5569
1533 1 1 12.2274 14.2025 2.1315
7436 1 1 11.7306 15.23 36.7683
7858 1 1 14.0712 13.7794 36.5888
7920 1 1 15.1856 15.4821 0.298476
670 1 1 16.9364 15.3344 1.56342
278 1 1 18.6079 17.2706 1.04282
7870 1 1 17.7849 15.0796 2.32205
791 1 1 1.96515 17.4926 37.316
398 1 1 1.88649 17.3997 1.8703
310 1 1 18.465 15.8869 0.878666
331 1 1 2.40243 17.538 0.773115
7602 1 1 2.09751 16.6073 1.03906
397 1 1 3.51869 18.3057 0.6267
7086 1 1 3.69148 15.4915 0.580874
7555 1 1 5.21318 17.0969 2.18475
340 1 1 5.77743 17.3194 0.687748
7695 1 1 5.76774 16.2461 37.5262
768 1 1 6.82407 16.0877 0.222779
249 1 1 7.45012 17.7937 36.4931
6936 1 1 7.51788 18.071 0.507648
7667 1 1 10.1494 18.7912 37.6299
286 1 1 9.46755 17.0052 0.0881865
7613 1 1 8.41146 15.4939 0.501686
675 1 1 11.15 17.6593 1.58036
7437 1 1 14.0738 17.386 0.241384
7994 1 1 11.5609 15.9464 1.57244
7951 1 1 12.9157 15.7583 0.382246
64 1 1 14.1537 16.9065 2.29764
7147 1 1 13.8945 14.9693 1.35822
785 1 1 16.3088 17.062 35.743
7963 1 1 17.106 17.2072 37.4726
1199 1 1 17.0766 15.2635 37.3054
834 1 1 17.866 18.1314 1.3709
7844 1 1 16.5096 16.5019 0.91935
439 1 1 0.850307 18.2055 1.40324
7926 1 1 3.03683 18.0093 1.73405
318 1 1 2.40406 18.2961 0.148073
7848 1 1 1.71191 0.113091 1.26571
6767 1 1 3.93764 0.670882 0.726218
7532 1 1 5.18914 18.4378 0.0258449
7661 1 1 5.08798 0.917146 0.790733
7620 1 1 9.76382 18.7429 0.934
141 1 1 8.73428 18.3727 0.234493
329 1 1 6.07175 0.81834 37.0935
338 1 1 7.75841 0.823791 0.612292
740 1 1 10.513 17.1712 2.33134
749 1 1 11.3558 18.1223 37.4658
837 1 1 16.1973 17.6279 0.514067
6832 1 1 14.7737 18.4271 0.587858
79 1 1 18.0269 16.6721 0.27519
7638 1 1 16.9515 18.6851 2.26261
1713 1 1 0.952312 17.9984 37.47
105 1 1 0.497723 16.2399 1.4114
1158 1 1 18.3186 1.33281 3.24472
491 1 1 0.18959 1.34592 4.20868
7996 1 1 3.20362 1.48635 2.53284
7651 1 1 1.56109 0.794685 2.75954
35 1 1 1.45575 2.2551 2.31554
778 1 1 2.16374 0.535865 3.94537
323 1 1 4.75888 2.39723 0.988697
1210 1 1 7.31215 17.0332 0.583888
419 1 1 6.70454 0.594916 2.28946
1541 1 1 8.86204 18.036 2.43744
553 1 1 10.6026 2.74185 3.62646
1130 1 1 11.7901 1.0045 3.27696
504 1 1 8.24377 0.0631452 2.2234
375 1 1 12.9302 0.294763 2.77824
7779 1 1 13.5821 18.6213 0.740728
353 1 1 12.5635 1.47325 3.90318
1138 1 1 13.9005 1.47928 1.244
7989 1 1 13.1645 1.68418 0.338204
7990 1 1 14.0095 0.185496 2.40345
784 1 1 17.2555 0.108994 1.17532
151 1 1 15.7899 1.12273 1.85698
1146 1 1 16.3031 0.00929274 0.829784
899 1 1 18.333 18.6135 2.83968
7950 1 1 0.360667 2.00466 1.90614
483 1 1 18.8082 2.48958 2.81742
2134 1 1 0.902619 1.88649 3.50594
321 1 1 3.2441 2.18778 3.65562
802 1 1 2.7477 0.401368 2.10722
503 1 1 4.95545 1.48707 3.87092
487 1 1 5.40138 18.5564 3.08562
7616 1 1 5.8792 0.805678 2.7824
7585 1 1 7.66828 1.1002 1.9068
764 1 1 9.04601 2.17892 3.32352
496 1 1 7.9996 2.15477 2.47267
726 1 1 8.26192 1.22078 2.98443
416 1 1 9.46256 0.492426 2.00581
1308 1 1 9.72445 2.56978 4.33305
500 1 1 11.7542 1.83718 2.56739
1196 1 1 13.295 2.68231 2.07241
460 1 1 13.4127 1.08285 3.22432
7911 1 1 10.9952 0.826637 2.35012
7708 1 1 14.7878 3.08532 1.03765
422 1 1 14.2077 2.15044 2.62347
7997 1 1 12.3453 3.35931 1.73075
1223 1 1 14.9628 1.6649 1.42356
1238 1 1 16.4604 3.62177 1.25766
157 1 1 16.5851 1.48067 2.84629
1717 1 1 18.0636 3.5367 2.69616
7756 1 1 18.5678 3.50946 0.827565
1634 1 1 17.5528 4.40306 0.672705
520 1 1 3.41741 2.56239 2.76156
1280 1 1 2.79397 4.97723 1.57025
7715 1 1 1.84618 3.6485 2.40202
523 1 1 18.7842 4.00333 1.93156
1932 1 1 4.86014 2.87221 3.7543
89 1 1 5.79241 2.44509 1.98925
527 1 1 6.14098 3.88832 2.97742
43 1 1 4.13839 1.74527 3.09835
60 1 1 7.05956 4.57307 0.662699
1168 1 1 5.22319 1.86801 2.84094
887 1 1 7.30152 4.07691 4.4673
7296 1 1 7.00886 2.76274 2.76231
7698 1 1 9.45717 4.15601 1.21489
1337 1 1 7.27612 4.64689 1.66419
7700 1 1 9.69283 3.28514 3.39284
217 1 1 10.7536 4.57042 3.839
7656 1 1 10.3095 2.98822 0.62055
781 1 1 11.406 1.47061 1.36535
224 1 1 10.975 4.62391 2.48324
616 1 1 11.5404 3.57523 3.36811
7665 1 1 12.4071 4.85871 2.27193
874 1 1 14.6367 2.7316 1.94967
7552 1 1 15.3931 3.34883 3.24135
1670 1 1 15.6334 3.10774 2.09079
1640 1 1 17.0997 5.30711 1.29534
1315 1 1 16.1214 2.43189 2.8221
525 1 1 17.4129 4.24687 1.93413
481 1 1 17.8607 5.1435 3.01151
1751 1 1 18.6617 4.90536 1.06778
6804 1 1 1.62476 6.37602 2.01884
7643 1 1 2.66332 5.64577 2.68517
1776 1 1 3.8199 5.28905 1.93891
7685 1 1 5.98342 4.69725 3.58844
1045 1 1 7.01403 6.97626 3.09158
1339 1 1 3.72369 4.71979 1.12586
130 1 1 5.26927 4.00599 2.07407
94 1 1 7.76586 4.25216 2.47228
1373 1 1 6.81675 3.80913 2.07195
1701 1 1 10.6852 5.69383 2.9266
581 1 1 9.93017 5.1412 2.58744
147 1 1 12.2915 5.32719 4.40526
954 1 1 14.095 4.32042 1.70118
100 1 1 13.8103 3.27389 1.02126
908 1 1 15.2126 4.10254 1.68427
156 1 1 14.6025 5.80142 3.21355
1194 1 1 17.5637 6.23024 3.25703
801 1 1 16.3293 5.11128 2.07943
1316 1 1 17.4238 6.18955 2.04302
522 1 1 0.93719 7.09024 4.35096
1323 1 1 2.05413 6.52943 3.08946
1806 1 1 0.28123 7.61567 37.6287
241 1 1 3.22756 7.09583 2.63301
1409 1 1 3.14675 4.69164 2.72394
729 1 1 1.11569 6.40396 3.62764
566 1 1 4.94307 5.39095 2.63845
7718 1 1 5.11426 9.4719 2.56975
10 1 1 6.12156 5.93086 0.84923
1296 1 1 7.49915 6.07361 3.35837
7762 1 1 7.19346 6.26145 2.06418
376 1 1 7.80937 5.58593 1.59005
497 1 1 9.15791 6.32623 1.96808
555 1 1 11.0963 6.54665 3.69686
587 1 1 8.43491 6.26035 2.83007
446 1 1 10.2371 6.53562 2.39017
140 1 1 10.5211 7.44312 1.79667
498 1 1 11.6966 6.38843 2.55378
1668 1 1 13.3857 5.41212 2.57907
552 1 1 14.2411 6.56774 2.54357
515 1 1 13.8048 6.96198 1.06853
1359 1 1 15.1941 6.48354 0.306173
1037 1 1 15.4975 5.55826 2.71025
1637 1 1 15.6487 6.98853 3.72294
1754 1 1 17.993 7.41802 3.58995
1360 1 1 18.4854 6.42661 2.67802
1318 1 1 17.6268 7.33412 1.97832
45 1 1 2.39989 8.66177 2.3642
158 1 1 0.768549 8.35517 2.17336
81 1 1 3.5159 7.53816 0.326137
720 1 1 2.48055 9.34831 4.32597
1766 1 1 3.02157 7.27495 1.72484
852 1 1 3.28104 7.28173 3.75258
153 1 1 3.2976 9.3096 3.5803
637 1 1 4.24957 8.10547 3.34206
1781 1 1 3.96002 9.07167 4.99016
138 1 1 6.05071 7.25562 2.23892
53 1 1 7.53246 8.22097 2.79486
2177 1 1 4.43187 10.2711 2.81795
1085 1 1 5.79524 10.3412 1.75629
1727 1 1 8.2208 7.54169 3.17043
177 1 1 8.19326 7.76877 36.958
1098 1 1 9.33223 7.2635 2.72564
890 1 1 10.0108 7.99596 2.6551
232 1 1 9.28241 8.58452 1.71218
231 1 1 11.2275 7.50003 2.49274
948 1 1 12.7467 7.21137 4.06937
1441 1 1 12.2148 6.98556 1.93393
2153 1 1 13.8018 7.8056 2.98094
193 1 1 16.9175 8.15805 2.15645
7798 1 1 14.7037 7.98436 3.39074
594 1 1 15.3623 9.02083 3.3583
7397 1 1 16.5575 7.42919 3.27855
7721 1 1 0.23674 5.95533 0.117726
441 1 1 0.242217 9.21814 3.44578
7800 1 1 0.952355 8.94169 0.834715
7806 1 1 2.34534 9.79316 2.12254
6484 1 1 2.00883 9.27816 5.40229
564 1 1 3.32979 8.00692 2.93884
1041 1 1 3.49829 9.29847 2.41179
374 1 1 6.76103 13.7436 2.16511
7734 1 1 5.8107 10.2834 0.563467
536 1 1 7.15986 11.0645 3.22717
7377 1 1 8.5398 9.66181 2.09157
1420 1 1 8.76844 10.5179 1.55261
7774 1 1 9.5988 9.46356 2.92623
7712 1 1 13.3267 8.86652 3.81477
1020 1 1 10.0744 9.34489 1.88493
1478 1 1 14.1233 7.83402 2.06914
7808 1 1 11.9666 10.7021 2.42334
1430 1 1 11.5501 9.56476 2.33026
276 1 1 16.2172 9.95013 4.10171
1033 1 1 16.7435 9.19247 2.73364
308 1 1 0.0907507 9.9668 2.60945
393 1 1 0.675352 10.7949 2.93874
7931 1 1 1.41436 9.2141 2.68275
206 1 1 2.22737 10.6269 1.53455
1852 1 1 1.49065 11.1306 2.25854
201 1 1 3.68847 11.0862 3.0627
983 1 1 3.53241 9.25834 1.18193
357 1 1 7.47165 10.9007 1.64282
1376 1 1 5.92395 9.79554 3.12248
526 1 1 5.12581 11.83 1.39635
1008 1 1 5.91651 13.0147 2.89517
1089 1 1 6.27674 11.5301 3.27475
1135 1 1 8.07492 12.2055 3.22847
1532 1 1 8.37545 11.5419 2.0084
1065 1 1 8.74896 11.2611 3.15439
615 1 1 10.0727 10.3642 1.55371
1790 1 1 11.1085 9.36558 1.44436
492 1 1 9.55654 10.4592 3.92084
227 1 1 9.66214 12.9218 3.1396
7811 1 1 11.8683 11.5937 1.69409
1044 1 1 10.7577 9.59477 3.10218
638 1 1 14.4165 11.9647 3.68167
593 1 1 11.9697 11.1273 3.63957
1074 1 1 14.2966 11.052 2.25679
7395 1 1 14.0643 10.5585 3.14496
669 1 1 17.2152 11.0427 3.15031
7804 1 1 17.2773 10.1383 2.14508
349 1 1 18.1806 9.68286 1.9495
6569 1 1 0.185714 10.8871 2.05078
7322 1 1 1.66921 11.6338 3.5412
162 1 1 0.879698 10.1836 1.75629
1005 1 1 1.91479 12.2464 1.71703
327 1 1 2.47252 13.0802 2.41839
925 1 1 4.31576 10.701 3.71884
7928 1 1 2.70683 11.255 2.44878
233 1 1 3.18022 12.2132 2.80895
342 1 1 5.1256 12.8786 1.47461
1486 1 1 4.51234 14.0723 2.77691
1017 1 1 6.75828 12.0692 2.49011
699 1 1 9.27705 12.0617 1.66973
1103 1 1 10.2286 12.6159 2.0378
1822 1 1 10.6376 10.7285 3.46491
610 1 1 11.3527 10.4635 1.66274
1153 1 1 14.169 12.7759 2.03003
1538 1 1 14.1572 13.2761 2.96844
878 1 1 14.8342 11.9977 2.57257
1073 1 1 15.2994 10.7778 1.98713
7444 1 1 14.3799 10.6841 0.784868
2234 1 1 15.1206 11.487 1.2017
559 1 1 17.775 11.11 2.15981
7791 1 1 16.9018 12.0782 1.6572
1484 1 1 16.3841 12.533 0.932285
7757 1 1 18.1706 13.366 3.0125
404 1 1 1.49003 12.4964 2.56016
7052 1 1 0.482857 13.3932 1.11644
1128 1 1 1.24257 13.4397 2.07383
2373 1 1 4.03437 12.5886 1.3717
7180 1 1 4.66694 15.884 2.70703
7487 1 1 4.82341 12.5748 3.26501
691 1 1 7.70749 13.8962 1.67403
2661 1 1 8.51686 13.8758 2.26422
7936 1 1 5.6638 13.7414 1.52432
225 1 1 8.82671 12.477 2.5512
1133 1 1 8.04298 14.9043 2.08083
7945 1 1 11.3186 14.8767 1.54176
736 1 1 9.41174 13.9467 2.83659
1501 1 1 11.6167 15.0105 0.342188
7464 1 1 11.2282 13.1586 37.0785
259 1 1 13.2303 13.4339 2.5562
2244 1 1 11.0755 12.6466 1.5992
1942 1 1 14.531 13.9612 3.7867
1368 1 1 15.8337 14.8014 2.09887
608 1 1 15.515 13.5139 36.7244
7515 1 1 16.5165 13.6879 2.26268
1389 1 1 18.3842 14.843 3.18712
1439 1 1 0.831286 12.487 1.57193
1427 1 1 0.0422067 14.3195 1.91089
7968 1 1 1.2296 16.3713 2.59105
686 1 1 1.07752 17.1431 3.22026
7658 1 1 0.791964 14.1222 2.79158
590 1 1 0.917622 12.9828 3.36639
609 1 1 3.51978 16.443 1.69282
7835 1 1 3.08772 15.734 2.51547
1081 1 1 5.0914 14.7449 0.758873
1446 1 1 4.5837 16.1062 1.49963
7503 1 1 6.32679 14.5628 1.3471
1485 1 1 5.59398 16.1781 2.64547
7123 1 1 5.56342 15.2911 1.92377
7579 1 1 6.61756 13.4698 1.1449
690 1 1 7.74905 16.1131 1.6871
773 1 1 6.71042 15.6744 1.46924
31 1 1 10.3985 15.6157 0.583706
304 1 1 10.5749 14.0194 2.64345
1170 1 1 10.2271 16.2734 1.44214
7531 1 1 8.67305 16.4808 3.89969
7508 1 1 12.1246 16.6583 3.61504
7829 1 1 12.2132 13.1111 2.30459
7834 1 1 13.8095 13.6712 1.11807
273 1 1 13.4404 15.6031 3.69357
1192 1 1 13.3638 15.9136 1.37439
7075 1 1 14.2029 15.0436 0.164379
990 1 1 15.1056 15.4887 1.66654
7551 1 1 15.2052 16.6179 1.58275
306 1 1 14.8105 14.1049 1.22746
1561 1 1 17.111 13.7703 1.47143
1149 1 1 18.4181 16.3312 3.71073
394 1 1 2.05839 16.2208 5.07158
248 1 1 4.14588 17.4468 2.02987
755 1 1 2.27106 15.4533 1.44748
7972 1 1 3.83554 18.5113 1.83051
643 1 1 3.5718 17.2058 0.851654
7455 1 1 4.65805 17.7492 0.842836
1131 1 1 5.8046 17.2541 3.08323
292 1 1 6.25216 18.058 1.74417
1172 1 1 6.14061 15.281 0.582557
16 1 1 8.1973 15.8623 2.76544
700 1 1 8.34502 16.6495 0.611506
346 1 1 9.11979 17.0032 1.42313
381 1 1 9.20557 16.2496 2.86294
1506 1 1 11.4212 15.9619 2.61491
1226 1 1 10.0939 17.7505 1.27173
658 1 1 12.3914 16.7499 1.35852
379 1 1 12.4555 14.7866 1.06927
2062 1 1 12.4092 15.7905 2.07682
1107 1 1 14.5721 16.1251 2.78031
7040 1 1 15.7871 17.6054 1.57325
1537 1 1 13.5681 15.6815 2.61337
33 1 1 16.1887 16.5858 2.05258
1233 1 1 16.6678 15.7164 3.18191
7561 1 1 0.423681 16.9905 2.18717
1474 1 1 16.6406 17.5655 2.1946
1198 1 1 0.828189 17.9251 2.44479
412 1 1 0.623462 0.22841 1.82492
7197 1 1 0.81173 16.8502 4.22362
1481 1 1 1.44733 18.4651 2.9571
155 1 1 1.95029 1.04622 1.83048
325 1 1 3.45647 18.1446 2.74534
207 1 1 4.8268 18.1721 1.87278
7896 1 1 4.63671 0.774936 3.02084
889 1 1 5.04407 18.6578 0.981755
363 1 1 6.4117 18.0544 0.618822
27 1 1 8.73429 16.0417 1.50923
1174 1 1 7.1972 17.5841 2.14942
7913 1 1 12.3552 0.0400598 1.84594
820 1 1 9.9645 0.974083 3.05511
7550 1 1 11.2815 18.5831 0.660978
22 1 1 13.7811 17.2769 1.35514
982 1 1 11.3549 17.9098 2.64797
391 1 1 11.6095 16.9328 2.20286
433 1 1 13.7987 18.0765 2.40109
1272 1 1 14.7161 17.7669 1.84627
754 1 1 16.0298 18.669 1.83271
2033 1 1 17.0485 18.337 3.69966
40 1 1 17.8525 17.5736 2.44438
800 1 1 17.4594 2.16331 2.33288
888 1 1 18.8261 17.539 3.07428
1200 1 1 17.6112 0.111965 4.3015
1106 1 1 1.69867 1.7055 4.85541
843 1 1 2.66883 18.7839 3.02053
7614 1 1 4.53497 18.0626 3.06595
1201 1 1 5.52405 0.0800241 2.054
777 1 1 5.10153 0.156504 5.15962
7678 1 1 5.33119 0.447441 3.89331
1141 1 1 6.98367 0.0174981 5.58702
1584 1 1 6.16051 0.468749 4.51878
6 1 1 9.11828 17.5896 4.39729
855 1 1 7.37947 18.336 3.10058
1548 1 1 10.1047 17.4391 4.22317
1250 1 1 11.0234 0.560371 4.01717
869 1 1 11.3016 1.70516 3.82383
139 1 1 14.386 1.2809 3.46786
941 1 1 12.1568 0.931015 5.02564
20 1 1 13.9849 0.38614 3.63744
7155 1 1 14.4397 1.15563 2.31425
7478 1 1 14.8761 -0.0211302 1.91582
1187 1 1 14.5746 17.9523 3.08361
7887 1 1 16.7725 18.6255 4.5707
364 1 1 18.3111 2.507 3.73658
2029 1 1 16.9148 1.12405 1.90626
884 1 1 0.314404 3.29124 3.75675
336 1 1 3.66983 0.377815 2.73209
47 1 1 1.62176 2.67097 4.19001
1129 1 1 2.69421 1.328 4.36732
1638 1 1 4.32731 18.1495 4.95488
7298 1 1 5.18466 1.13353 4.79392
1340 1 1 5.80513 2.61853 4.38647
971 1 1 6.02345 1.26979 3.79639
93 1 1 5.67843 2.94462 3.03607
937 1 1 7.35474 2.24745 4.39576
1582 1 1 7.24259 1.28892 2.88122
7150 1 1 8.35739 1.94017 4.30188
863 1 1 7.88846 1.09725 4.32026
511 1 1 12.1577 2.35106 3.57096
26 1 1 14.5825 1.67925 5.41781
821 1 1 12.7226 2.38766 5.30424
7619 1 1 12.0979 3.08201 2.68538
818 1 1 11.8844 2.08196 4.67328
1540 1 1 14.728 2.19554 4.04409
427 1 1 15.4292 1.08159 3.10185
1964 1 1 15.3093 1.97091 2.40052
752 1 1 16.6024 2.01373 1.51526
756 1 1 16.29 2.12487 3.75364
115 1 1 17.1835 0.651484 3.35781
450 1 1 0.862432 3.95842 2.62905
1636 1 1 0.4789 4.96678 2.3669
603 1 1 3.3071 5.4149 3.6932
1738 1 1 1.46719 3.05445 3.26032
1216 1 1 4.95231 3.75191 5.33083
767 1 1 3.17334 4.02412 4.79601
885 1 1 6.21618 3.52424 4.57687
734 1 1 5.34204 2.88085 5.96409
1336 1 1 8.08691 4.77017 4.48184
977 1 1 6.40738 2.59096 5.06995
41 1 1 8.09816 2.80083 3.42489
1206 1 1 6.67956 2.87992 3.78815
611 1 1 8.9551 4.18615 3.60912
850 1 1 8.74734 3.3273 4.61823
1687 1 1 10.8162 3.29437 2.64911
876 1 1 9.79502 4.22962 4.31303
824 1 1 11.7557 4.24761 1.59849
588 1 1 12.2023 3.10504 4.66658
426 1 1 12.7595 3.41539 3.81165
1597 1 1 12.8692 4.45245 4.00414
543 1 1 13.2257 3.68106 2.33504
514 1 1 14.3652 3.28228 2.81622
495 1 1 15.2861 3.02582 4.85524
910 1 1 15.9891 4.06654 4.14403
119 1 1 15.7049 4.53768 2.5983
2159 1 1 17.1371 3.03844 2.16134
7228 1 1 17.3155 1.78375 3.57194
1197 1 1 1.33691 4.17737 3.81857
1241 1 1 18.8149 7.70867 4.08105
848 1 1 1.29251 4.58954 2.02584
1334 1 1 1.05983 5.89266 5.40751
98 1 1 2.05987 4.7498 2.62223
1330 1 1 4.37928 5.29977 3.65737
2136 1 1 5.42205 3.9804 4.26473
965 1 1 5.92147 4.33348 5.20723
1729 1 1 4.39856 4.05218 4.49657
7219 1 1 7.38087 4.79657 5.40539
180 1 1 7.37701 4.81005 3.76656
1331 1 1 8.04315 5.70112 5.0184
1066 1 1 9.34354 4.8416 5.16842
2150 1 1 9.98559 4.3012 3.041
909 1 1 11.2969 5.59747 2.02087
1229 1 1 11.8961 5.00277 3.55924
173 1 1 12.1987 6.0457 3.48676
32 1 1 13.6887 6.45018 3.47316
1413 1 1 11.2614 5.57046 4.01784
947 1 1 11.7992 4.25017 4.22521
470 1 1 13.0866 4.71525 5.14745
2232 1 1 13.7933 4.68792 3.0694
509 1 1 14.9707 5.78691 4.35988
1202 1 1 13.5986 5.22019 4.12462
2071 1 1 17.1375 4.85376 3.66622
1759 1 1 16.033 5.94814 4.74008
1355 1 1 0.523866 4.61652 3.55656
1275 1 1 16.4393 5.0778 4.98851
560 1 1 0.482783 5.49695 3.24993
568 1 1 2.05707 7.76734 2.50584
2357 1 1 1.07638 5.33356 4.58439
808 1 1 1.62015 6.45833 4.7316
489 1 1 1.50416 5.21024 3.41582
239 1 1 4.90032 4.34082 3.40379
936 1 1 3.10384 7.69909 5.01622
1299 1 1 5.14429 5.90597 3.47114
898 1 1 6.66822 5.42231 4.36172
1732 1 1 5.44433 6.43545 4.30879
932 1 1 8.34014 7.15213 2.17724
1333 1 1 8.38558 5.2987 2.31664
1381 1 1 8.61101 6.05615 3.79931
2126 1 1 9.75471 6.26761 3.35095
2103 1 1 9.09286 5.14951 3.45859
1015 1 1 9.86964 5.38233 4.06052
7850 1 1 11.3644 6.06805 4.94625
862 1 1 12.5883 7.35175 3.00796
1354 1 1 13.6581 4.55976 6.17081
1463 1 1 12.4725 6.67418 5.15357
1438 1 1 13.7107 7.85082 4.1246
7714 1 1 13.0992 5.83615 4.99509
2269 1 1 15.3514 7.98522 4.15431
1648 1 1 14.5175 6.96496 3.61621
1793 1 1 15.5905 7.14238 4.79512
1443 1 1 17.9751 6.32572 4.2403
1488 1 1 0.815344 6.91106 2.7434
1677 1 1 18.4005 5.85482 5.19193
927 1 1 2.36811 8.00467 3.73218
449 1 1 3.39229 8.39436 4.23082
90 1 1 1.96527 7.0707 3.92171
966 1 1 4.58921 6.86965 3.45415
1051 1 1 5.88563 7.05007 3.43355
7843 1 1 5.70894 7.66274 4.81375
571 1 1 5.68176 8.72558 3.10807
1466 1 1 10.3494 6.77616 4.6048
951 1 1 7.00417 6.54899 4.09418
7827 1 1 11.5711 7.41421 3.69963
1378 1 1 10.0609 7.52482 3.60263
1019 1 1 10.9645 7.85401 4.71294
2094 1 1 10.8553 7.00318 5.52409
1387 1 1 11.8659 7.36215 4.67806
1036 1 1 13.9634 9.21115 2.60063
1429 1 1 11.587 8.07531 5.53052
1395 1 1 14.1066 8.46967 5.51211
2154 1 1 14.8794 9.84225 2.10244
1798 1 1 14.4868 8.61851 4.51426
134 1 1 15.9842 8.93598 4.66246
996 1 1 18.3422 8.52477 3.88617
1350 1 1 17.6061 8.18247 2.98917
311 1 1 17.9967 9.21872 2.89971
6867 1 1 1.183 9.09656 3.81289
1365 1 1 1.82213 10.5984 3.07768
1850 1 1 2.20217 8.12558 5.88675
315 1 1 4.2482 9.41253 5.95809
358 1 1 4.89611 8.77851 4.28313
586 1 1 5.77364 9.77789 4.63868
7823 1 1 5.15255 7.77647 3.81913
1421 1 1 6.89794 9.14871 2.85811
208 1 1 7.30084 7.67321 3.76413
988 1 1 7.6825 9.95571 3.21747
2065 1 1 8.72944 8.90207 4.4949
649 1 1 11.811 8.87111 3.906
1390 1 1 11.3991 8.88279 4.88644
606 1 1 12.2831 9.49353 4.66783
1718 1 1 13.6058 10.1617 1.60957
108 1 1 15.6834 10.2753 2.97549
1714 1 1 13.7303 9.7101 4.10654
2645 1 1 15.2175 9.74194 4.72958
1353 1 1 16.7974 8.4203 3.62932
1396 1 1 17.1026 9.81604 3.55164
1556 1 1 17.0073 9.2046 4.59115
1403 1 1 0.353353 10.0465 4.12864
1521 1 1 1.44106 10.6264 5.88681
1001 1 1 2.27246 13.7101 3.44923
365 1 1 1.109 10.7752 4.17076
2084 1 1 1.87029 10.6662 4.75273
7482 1 1 3.2569 10.4985 4.24914
573 1 1 5.03161 11.7145 2.78604
1050 1 1 7.64893 11.8333 5.48886
255 1 1 6.28511 14.4309 3.70034
694 1 1 10.7199 8.60281 4.0287
1695 1 1 8.66669 10.2494 3.42909
1111 1 1 11.5388 11.8365 4.98618
211 1 1 12.0063 9.95059 3.4141
1039 1 1 13.1963 9.66763 3.1797
303 1 1 12.418 12.1514 3.75328
136 1 1 12.6024 11.1357 4.94593
78 1 1 16.1635 11.872 2.75409
955 1 1 12.864 10.918 3.10509
7428 1 1 15.1888 11.0561 3.29618
914 1 1 15.3615 10.8656 4.37874
642 1 1 16.1397 11.5245 4.64706
757 1 1 17.8825 11.3268 4.80337
1475 1 1 0.139588 11.6264 4.29338
1878 1 1 18.0729 11.0436 3.68089
557 1 1 17.988 10.3343 2.8562
125 1 1 2.3772 14.682 3.90396
1163 1 1 2.79493 11.4502 3.4968
288 1 1 3.60336 12.8053 3.83241
7888 1 1 3.12902 14.4827 3.06518
1287 1 1 3.79653 11.6509 3.98169
1411 1 1 5.77983 12.3907 3.7674
621 1 1 5.32581 14.101 3.7712
574 1 1 9.77483 11.6655 2.66044
1983 1 1 9.80102 10.5432 2.67817
277 1 1 10.9217 12.9067 3.08497
622 1 1 11.5625 14.0345 4.77726
2112 1 1 12.4072 11.9356 2.62644
667 1 1 13.7309 14.3635 2.88886
600 1 1 14.8422 12.3345 4.69694
991 1 1 13.3232 13.6194 3.87392
7907 1 1 13.4881 10.606 4.01709
6719 1 1 15.9433 13.1784 3.34268
240 1 1 15.4374 11.9826 3.77249
967 1 1 16.5458 12.5249 4.10529
968 1 1 14.966 13.401 4.58435
1159 1 1 0.80266 11.5524 5.35805
251 1 1 17.8251 14.1798 2.44401
1450 1 1 4.37406 12.8499 2.47778
688 1 1 1.32472 14.5628 3.64432
627 1 1 4.29184 15.2424 2.06416
2343 1 1 6.36578 13.2566 4.08776
7784 1 1 6.90041 13.9243 4.65695
213 1 1 9.12959 12.3498 3.85307
1939 1 1 9.69413 13.0811 4.3673
2017 1 1 10.2947 13.8788 3.86193
628 1 1 12.8586 14.8988 3.16727
1432 1 1 12.309 13.2586 4.01153
747 1 1 14.3619 12.648 6.20037
1825 1 1 15.2462 13.664 2.25649
1120 1 1 16.0204 14.0875 4.20306
1042 1 1 16.4263 13.3224 4.73632
597 1 1 16.884 12.6953 3.07542
639 1 1 17.2288 13.8359 3.19966
282 1 1 18.418 15.9557 2.53778
1487 1 1 0.0196892 13.8768 3.54573
1550 1 1 3.01378 15.7541 3.65224
2367 1 1 0.462657 15.1618 2.82158
7900 1 1 3.78262 14.1205 5.755
350 1 1 4.02464 15.1406 3.3284
1217 1 1 6.57415 15.9296 3.11635
687 1 1 6.70108 15.0125 2.40216
7975 1 1 6.38031 16.7445 1.94122
1530 1 1 7.9156 17.0156 3.61078
1145 1 1 5.34152 15.0054 3.02078
7543 1 1 8.34818 15.279 5.70585
253 1 1 8.67266 13.1036 3.29293
1527 1 1 7.40413 15.4733 5.3004
1579 1 1 9.31654 16.3231 5.32786
1139 1 1 10.0682 14.8124 3.44433
317 1 1 9.86602 15.5581 4.39954
1906 1 1 11.3627 14.9374 3.00833
254 1 1 10.8618 15.24 4.71388
7838 1 1 12.8856 16.3818 2.85966
269 1 1 14.3428 15.1379 3.51712
663 1 1 17.2092 14.9806 3.76296
629 1 1 17.6561 15.7435 3.29781
2037 1 1 16.7757 14.7849 2.60488
1046 1 1 16.6941 15.0345 5.34499
724 1 1 0.846584 15.7487 3.54204
727 1 1 2.70411 16.6168 2.78303
1156 1 1 1.99573 15.4854 4.17837
1449 1 1 2.97361 16.9848 4.12445
1211 1 1 3.83686 17.3792 3.57026
682 1 1 2.07165 15.221 2.90959
1453 1 1 4.72894 16.9415 3.01794
693 1 1 3.85715 16.3975 2.78473
1134 1 1 7.21737 16.5081 2.46401
704 1 1 4.80626 15.6599 3.80911
7856 1 1 9.87706 16.7596 3.41808
7980 1 1 8.3335 17.1819 2.56096
19 1 1 10.392 15.8725 3.29566
1184 1 1 10.2464 15.0945 2.24816
1151 1 1 12.1736 15.4569 3.63112
7872 1 1 14.5293 16.5209 3.90171
790 1 1 13.4263 17.3779 4.04024
823 1 1 13.1104 15.5493 4.73478
798 1 1 12.9869 17.3241 2.08931
234 1 1 15.6283 15.9811 2.71788
678 1 1 13.6886 16.4851 5.00332