ITEM: TIMESTEP
1800
ITEM: NUMBER OF ATOMS
8000
ITEM: BOX BOUNDS pp pp pp
0.0000000000000000e+00 1.8820720577620570e+01
0.0000000000000000e+00 1.8820720577620570e+01
0.0000000000000000e+00 3.7641441155241139e+01
ITEM: ATOMS id mass type x y z
913 1 1 2.56002 3.34916 1.74888
397 1 1 1.91796 0.102051 37.0827
802 1 1 3.59921 2.61511 37.2945
7972 1 1 2.43148 2.35296 0.574714
405 1 1 3.87861 3.92437 36.5685
7614 1 1 6.75533 0.160261 1.6885
18 1 1 3.67254 1.99578 0.843977
89 1 1 4.53588 2.45354 36.9062
1226 1 1 7.80494 16.2776 1.66814
7287 1 1 12.1102 1.50742 1.17841
7861 1 1 11.1896 0.793037 36.8978
390 1 1 8.67068 2.03313 4.47721
1138 1 1 11.1022 0.676823 3.37195
787 1 1 13.3695 1.15104 37.5136
7938 1 1 13.2231 1.67728 1.59381
7341 1 1 15.8857 17.9669 0.264514
7188 1 1 16.8391 17.5508 0.81524
113 1 1 17.4323 15.6175 1.68001
1964 1 1 17.6944 1.28121 1.4737
7044 1 1 16.7161 18.5416 2.10982
1142 1 1 18.211 18.3275 37.0245
412 1 1 1.90076 2.29174 1.51569
7265 1 1 1.00916 2.15256 1.18424
7633 1 1 0.146537 3.30491 36.7028
1160 1 1 3.33135 2.95353 0.756823
1237 1 1 0.947078 3.19213 37.6205
6767 1 1 3.44334 5.07943 3.70968
319 1 1 3.84646 1.60098 37.2658
7316 1 1 4.86362 3.21628 34.6378
527 1 1 5.75881 1.77864 1.12444
1295 1 1 8.59043 18.4284 35.4388
7303 1 1 8.78724 0.661216 36.1527
116 1 1 11.934 1.84474 37.1061
385 1 1 8.64142 3.02836 3.07586
7989 1 1 10.2 1.74951 2.4666
149 1 1 12.6907 3.01873 2.2009
39 1 1 13.7768 2.55211 0.693942
100 1 1 12.3017 0.873669 37.416
7549 1 1 14.3035 1.68805 1.61176
746 1 1 15.0577 0.787757 36.7479
157 1 1 15.4689 1.70301 3.37724
7293 1 1 16.1508 0.775779 36.636
480 1 1 0.546272 1.62408 4.26378
835 1 1 3.24615 5.05337 0.921908
796 1 1 4.55602 5.61191 2.00266
2432 1 1 18.2209 5.93909 1.02898
44 1 1 4.82495 3.70111 37.4901
445 1 1 2.47186 1.01201 1.59113
6648 1 1 6.14733 2.87317 -0.0287514
1373 1 1 6.60704 2.16534 1.47828
5739 1 1 5.4786 3.05008 1.30628
1739 1 1 5.09322 3.25646 36.5945
529 1 1 7.5182 2.54812 0.306766
696 1 1 6.3534 3.57493 35.0007
171 1 1 8.0267 18.7543 1.51159
7698 1 1 8.48933 0.818299 1.36996
633 1 1 9.75289 3.64837 0.744117
7821 1 1 11.8058 3.1485 1.48708
1309 1 1 15.0698 3.97988 1.45415
874 1 1 17.95 3.14782 1.97937
1668 1 1 16.8466 3.00633 36.0851
1634 1 1 17.2175 2.14608 0.577044
752 1 1 0.463999 4.80296 4.79781
431 1 1 16.9259 5.4588 37.4062
324 1 1 1.8588 5.40237 2.14782
7641 1 1 0.952566 6.39967 0.622552
6443 1 1 2.96962 6.06371 0.529766
7371 1 1 3.42611 5.58495 36.9775
440 1 1 5.65379 4.73461 0.259252
1339 1 1 6.97165 6.55076 2.13039
3 1 1 5.68641 4.12483 36.7963
6136 1 1 7.18861 8.6959 0.238991
7250 1 1 8.97149 3.54157 1.62139
15 1 1 6.59963 8.12845 1.38059
623 1 1 8.06515 5.23314 1.30853
779 1 1 10.8792 3.81281 1.02038
7776 1 1 12.8731 4.18142 1.48623
6986 1 1 9.97392 5.69082 2.21608
7745 1 1 11.2831 4.82919 1.33414
7591 1 1 14.0697 3.71084 0.559655
515 1 1 13.9839 4.12079 1.82936
30 1 1 12.7709 7.13389 37.029
7665 1 1 17.2089 2.29384 1.7129
1640 1 1 17.3931 0.660419 37.636
7721 1 1 16.1104 4.94312 36.3241
1636 1 1 0.338747 2.79928 2.21059
7754 1 1 0.142232 4.79422 2.06138
1751 1 1 18.5978 8.31088 36.3983
1806 1 1 17.0874 6.73851 34.6698
81 1 1 1.70029 5.45564 0.444116
1290 1 1 4.48588 5.83164 36.5009
10 1 1 3.75785 8.77425 1.05359
569 1 1 3.34318 6.06624 35.824
60 1 1 5.73467 6.97257 0.669672
7002 1 1 8.59797 7.44162 37.4425
102 1 1 6.87767 7.51272 2.14963
537 1 1 11.2507 3.81726 2.21606
6659 1 1 9.6149 6.13569 1.31828
538 1 1 13.6236 7.85934 1.01987
7071 1 1 10.7114 5.96475 1.44819
505 1 1 15.1106 4.95573 1.91757
1441 1 1 14.8622 7.93509 0.459633
554 1 1 16.5439 4.10801 2.4725
1473 1 1 15.042 6.86629 1.74046
519 1 1 14.5047 6.86092 37.1627
626 1 1 17.4739 7.99671 36.1567
1314 1 1 2.60645 9.01309 2.64926
164 1 1 1.84801 8.10805 37.6457
158 1 1 1.37366 8.20874 0.869151
7648 1 1 2.50235 5.95131 1.51563
1041 1 1 2.85713 7.61624 35.3269
930 1 1 7.93184 6.44748 37.5532
1026 1 1 6.90282 8.42629 32.9481
1337 1 1 4.82421 10.2991 1.78561
138 1 1 5.70874 8.80543 1.42879
177 1 1 8.11219 9.21184 3.242
7743 1 1 9.10486 9.49934 2.60316
133 1 1 9.91809 9.92887 0.809615
107 1 1 11.0157 5.99103 0.215128
142 1 1 14.0626 7.4182 36.4339
144 1 1 13.4925 8.77445 0.574235
1359 1 1 12.1639 8.12115 0.277805
1038 1 1 13.7765 8.60259 34.8128
2153 1 1 13.8511 5.5568 1.1536
7444 1 1 14.9641 6.04073 1.20564
281 1 1 13.3239 6.49892 0.12372
193 1 1 16.8463 8.83947 36.6175
7800 1 1 17.492 7.09285 37.1436
191 1 1 1.08606 9.37737 0.81806
202 1 1 2.37533 10.7769 1.42647
7718 1 1 3.42528 9.09742 37.5138
153 1 1 4.55365 8.08625 1.97813
222 1 1 3.78723 10.0332 2.32713
7847 1 1 5.042 8.73163 37.4184
564 1 1 5.39459 11.557 2.72713
647 1 1 4.44652 10.7733 3.39392
541 1 1 4.68288 9.09477 1.6105
95 1 1 7.79556 9.72052 1.67823
582 1 1 9.7456 7.86906 3.33666
1020 1 1 11.6846 7.70291 1.54531
7788 1 1 10.1725 9.45604 3.27105
91 1 1 9.58081 7.30086 0.754643
333 1 1 11.7558 6.8918 37.4861
74 1 1 12.2032 9.8647 37.5625
7780 1 1 14.1463 8.34295 33.4816
6997 1 1 15.3677 8.72504 2.70471
1350 1 1 16.7629 9.36333 2.87513
238 1 1 17.0605 8.04535 1.65415
349 1 1 16.6648 8.41393 0.633722
6683 1 1 3.47339 11.3565 1.49954
6972 1 1 0.834597 11.1856 1.72063
1003 1 1 2.6381 9.63629 1.7956
300 1 1 1.94523 10.9472 2.34148
7812 1 1 3.39171 10.3462 1.03807
2373 1 1 4.07612 9.77133 1.27333
645 1 1 7.62538 9.63915 37.1163
7579 1 1 6.34122 10.9484 3.24745
573 1 1 5.42683 10.4485 2.95415
357 1 1 5.59071 11.0592 1.91186
615 1 1 8.67736 8.44872 2.50338
7538 1 1 10.2694 11.3228 0.42464
1790 1 1 11.9146 10.4861 1.53793
6316 1 1 15.0531 8.40772 1.81316
7468 1 1 10.3311 7.63497 0.181808
1430 1 1 12.5471 9.11341 35.4697
2234 1 1 13.8729 8.65773 36.66
1036 1 1 14.4601 9.19206 0.423642
235 1 1 16.2676 10.4914 3.07708
7440 1 1 15.5842 6.8942 37.0245
6599 1 1 15.5385 10.7721 1.17564
200 1 1 18.5008 10.0585 1.44768
4 1 1 17.5599 10.0089 1.1374
311 1 1 1.15395 14.2214 37.5965
146 1 1 15.7516 9.70558 2.03739
962 1 1 1.2064 12.0192 36.9516
7479 1 1 1.53598 13.3973 0.752205
243 1 1 3.98353 13.0753 0.500561
7897 1 1 0.979207 10.8402 0.508673
203 1 1 2.54757 11.7764 0.899698
7817 1 1 2.57655 13.8611 0.749642
290 1 1 5.68058 13.465 3.47528
2177 1 1 5.91156 10.1587 36.4382
526 1 1 5.26165 13.4002 2.26347
7936 1 1 5.72328 12.3016 0.0226662
7891 1 1 7.78334 10.5577 36.7777
1509 1 1 6.28916 13.1892 36.6902
699 1 1 10.6304 12.1351 1.43957
2244 1 1 12.5461 10.3998 3.59963
7461 1 1 11.3204 10.1952 37.0104
1100 1 1 12.0906 9.71858 2.33915
683 1 1 14.8458 10.2309 1.82251
1368 1 1 18.5408 11.7526 34.5458
7834 1 1 15.6039 13.146 1.54794
1108 1 1 17.8986 14.2388 0.855031
165 1 1 0.193973 11.7008 0.607717
7451 1 1 17.9072 13.776 37.4174
7086 1 1 3.36113 14.8574 0.243808
246 1 1 1.34342 12.9867 35.4283
7581 1 1 1.68034 13.1752 37.3797
7953 1 1 7.44693 12.2256 2.03445
1102 1 1 5.33676 12.6893 36.4322
1010 1 1 6.22603 14.531 3.32078
287 1 1 6.89911 14.305 0.791566
1070 1 1 11.0869 13.0361 1.71798
7610 1 1 7.84064 16.0161 36.7874
768 1 1 7.85188 15.2572 34.5299
1501 1 1 13.074 15.2158 37.4038
1069 1 1 11.1898 11.8178 2.80363
7464 1 1 11.7399 13.9872 0.141872
7516 1 1 13.3284 13.7502 0.669599
7452 1 1 13.0258 13.3878 1.83811
7189 1 1 16.6805 13.1573 0.164865
6563 1 1 17.228 12.8131 3.35773
1484 1 1 0.335797 13.5475 37.412
310 1 1 1.88674 17.8145 2.56176
609 1 1 0.931713 14.1267 1.28945
6379 1 1 2.80595 14.0392 3.54083
7180 1 1 3.42331 14.9583 1.4594
627 1 1 4.53502 14.0546 3.42359
7535 1 1 5.8489 16.4796 0.528441
7555 1 1 6.017 15.3226 36.639
229 1 1 8.26371 15.8659 0.939428
6411 1 1 5.13269 14.8772 1.24625
7613 1 1 9.50437 16.4287 4.43981
1908 1 1 8.57071 15.4031 2.17137
725 1 1 8.34187 15.6769 37.5765
7504 1 1 13.5886 16.182 37.1261
259 1 1 13.8014 15.7128 1.79351
798 1 1 14.7022 15.8656 35.6831
7872 1 1 14.9482 15.0838 4.33143
7443 1 1 14.7598 17.7465 1.51436
1199 1 1 16.3467 14.8148 37.0066
7844 1 1 17.8459 17.3943 2.1061
6634 1 1 17.0552 14.1891 0.0560629
753 1 1 0.163853 14.9968 0.898005
1997 1 1 15.5126 15.961 0.554509
105 1 1 2.73369 17.8018 0.660122
7561 1 1 1.44457 17.2076 36.4828
7957 1 1 1.24502 16.1936 37.115
873 1 1 2.28624 14.3523 37.0848
7964 1 1 3.50192 17.3567 1.90592
7119 1 1 3.8662 0.0783883 1.97151
7701 1 1 6.35198 15.007 2.37208
340 1 1 5.50646 16.1649 37.3022
1172 1 1 5.45375 15.0165 37.3779
7975 1 1 9.26739 16.689 36.245
738 1 1 7.64038 17.1792 0.900221
286 1 1 9.10906 14.352 37.1087
700 1 1 9.13919 1.52923 0.709731
1170 1 1 9.27439 14.6758 0.713501
7994 1 1 11.019 18.3913 1.21083
1506 1 1 11.6997 12.7798 4.86561
7230 1 1 14.4186 16.7324 -0.00245032
6750 1 1 14.4015 16.6503 1.89058
837 1 1 15.22 17.1715 0.644654
677 1 1 13.0399 15.1873 35.6513
6674 1 1 1.19261 17.4795 3.33332
1713 1 1 2.22981 18.835 1.90396
547 1 1 3.98996 1.45594 1.63314
6753 1 1 5.0564 17.6482 35.3712
7562 1 1 5.27048 18.5581 4.00274
399 1 1 1.8739 1.17321 36.8431
889 1 1 4.44424 0.330696 36.1444
6673 1 1 7.93045 1.65646 3.09075
7585 1 1 5.17075 0.187432 1.32619
7620 1 1 12.6183 18.2079 0.863597
419 1 1 9.70696 16.8566 0.520508
7210 1 1 5.12492 17.7615 3.07791
11 1 1 12.798 0.670674 1.02974
6832 1 1 14.4237 0.861697 2.17797
22 1 1 14.823 -0.0215797 0.151993
1146 1 1 17.6562 17.1712 35.696
7547 1 1 16.9825 18.6734 0.795591
784 1 1 17.2971 15.9598 36.0957
73 1 1 0.578006 0.0764115 0.427922
278 1 1 17.6711 16.256 0.459955
8000 1 1 1.63011 17.7556 37.2157
1200 1 1 18.6451 1.10108 3.99902
402 1 1 2.82492 1.3364 0.417942
1198 1 1 2.80363 0.193546 2.78482
43 1 1 6.0415 0.0603593 3.38004
1168 1 1 6.1871 0.795474 2.30579
428 1 1 5.22284 17.9055 1.36049
7532 1 1 5.78777 1.04737 3.36321
496 1 1 7.50536 18.7367 3.42326
855 1 1 6.70103 18.3961 0.0711833
1582 1 1 8.89865 18.2391 4.69001
504 1 1 7.80484 18.3149 4.91886
764 1 1 8.92064 0.991331 37.1351
814 1 1 8.89888 18.0555 2.54316
838 1 1 11.9351 0.181014 3.02279
7779 1 1 13.1754 18.6785 4.17397
7155 1 1 13.5767 0.539476 3.43275
427 1 1 14.71 0.0339637 2.7493
422 1 1 14.9046 0.819158 0.906407
7478 1 1 14.9699 2.53093 3.64783
151 1 1 16.4961 1.92026 2.75403
430 1 1 1.02081 0.414094 2.43803
2134 1 1 0.690383 18.7941 1.436
96 1 1 3.58766 1.74865 2.63095
843 1 1 1.03752 18.4102 3.09781
1239 1 1 4.55208 2.99286 0.756673
38 1 1 5.86025 0.409115 4.41348
1461 1 1 6.82066 0.900455 3.43776
130 1 1 4.33101 1.54528 5.58226
765 1 1 8.33069 17.8852 1.68821
7656 1 1 9.42456 0.558224 3.60138
421 1 1 10.3279 1.31482 1.42217
7619 1 1 9.31992 1.79069 3.62001
500 1 1 12.6827 2.86437 1.08802
1196 1 1 11.3823 2.21131 1.73236
1270 1 1 12.367 1.90061 2.22309
1315 1 1 14.6798 2.11061 2.34304
7708 1 1 15.7425 0.396617 0.286524
1143 1 1 14.5414 18.7843 1.62911
2029 1 1 18.5525 1.94606 3.40235
356 1 1 15.3839 2.93045 1.10616
2159 1 1 0.0699047 17.6664 0.381512
7950 1 1 1.55787 1.42007 2.33247
155 1 1 1.91239 4.10833 2.06965
109 1 1 2.23877 2.49254 2.42521
7996 1 1 4.03252 4.55466 1.40636
7280 1 1 5.73118 3.28014 2.29026
239 1 1 7.08849 5.15489 2.33037
37 1 1 4.81558 2.38621 3.28145
376 1 1 7.0485 2.99306 4.14945
1206 1 1 6.7015 2.18866 3.49982
611 1 1 6.90378 1.6781 2.33969
1333 1 1 7.08025 2.15237 4.57921
1687 1 1 8.42753 3.36451 37.1628
946 1 1 9.78884 3.16573 3.99264
7997 1 1 8.53324 3.22379 4.44122
824 1 1 10.4016 2.86748 0.688406
461 1 1 12.2746 5.75266 0.759964
616 1 1 9.60686 3.68277 2.75421
7855 1 1 12.2858 0.923574 1.9778
543 1 1 14.3903 3.25628 1.78842
1229 1 1 15.4039 3.72623 2.53916
508 1 1 17.8283 4.32437 2.07109
786 1 1 0.765658 2.3344 36.9021
552 1 1 17.3456 3.50928 3.01002
65 1 1 17.8294 4.55907 4.12954
420 1 1 18.7835 1.91385 37.5614
2197 1 1 16.8449 5.38848 0.83792
34 1 1 1.13976 3.76416 0.990621
7647 1 1 2.02726 4.65883 1.10284
450 1 1 3.18651 5.01301 4.77456
209 1 1 6.14459 4.55379 2.1965
1776 1 1 6.18055 5.91037 1.17952
926 1 1 5.31218 5.86395 0.741425
455 1 1 6.17481 3.80093 3.22502
566 1 1 6.92183 3.39915 2.20392
7762 1 1 8.77601 4.43507 2.47921
581 1 1 8.838 4.2633 36.6734
180 1 1 12.1831 4.57695 2.92906
224 1 1 11.3392 2.90377 3.24063
1701 1 1 9.27121 5.07947 0.391341
909 1 1 11.1424 8.92615 34.7739
32 1 1 11.7836 1.98749 3.16279
591 1 1 15.1974 5.73185 2.54465
156 1 1 11.9017 6.34408 2.47254
470 1 1 15.0235 4.99951 3.96722
908 1 1 14.2013 7.00423 0.729415
1238 1 1 13.4584 7.87736 37.5258
7756 1 1 15.1034 6.79472 0.356194
7601 1 1 0.678726 2.10329 2.89765
1717 1 1 0.0592409 6.29855 2.52672
1318 1 1 18.5677 8.15153 37.4248
2110 1 1 0.974354 7.32065 1.48527
478 1 1 2.77411 8.12623 0.648618
580 1 1 2.48666 6.91098 4.18905
848 1 1 1.6401 8.81243 3.37896
475 1 1 4.39449 5.74068 0.718497
7643 1 1 2.79783 7.11256 0.359322
1488 1 1 3.51173 5.62238 1.82833
1369 1 1 5.40698 7.13923 2.23247
488 1 1 6.99789 7.01967 1.10037
637 1 1 5.47288 8.97917 2.50184
454 1 1 5.54236 5.02571 1.40752
7748 1 1 6.54535 6.935 2.98107
932 1 1 7.88202 7.7246 1.19974
497 1 1 8.16549 4.41365 0.648269
231 1 1 12.3506 5.05047 1.66818
862 1 1 10.8659 4.07753 4.85724
978 1 1 16.1859 7.61983 1.68896
7827 1 1 14.0053 5.21127 2.59874
2160 1 1 17.0331 3.19095 0.986426
7603 1 1 17.4097 7.41602 3.71101
6875 1 1 16.9513 5.55802 1.96677
474 1 1 18.1244 6.12057 35.6678
362 1 1 1.23276 8.82492 5.15455
45 1 1 2.72563 6.95507 3.01014
98 1 1 2.16113 8.71205 1.33369
1766 1 1 3.68393 8.96299 2.40219
1366 1 1 5.28125 10.4384 4.17428
6896 1 1 4.94867 8.04544 0.939229
1917 1 1 3.52019 8.73685 36.5971
1417 1 1 6.60928 11.0584 0.98332
53 1 1 7.35105 8.9652 2.27252
539 1 1 8.62813 8.07224 3.56324
7659 1 1 7.89946 7.21101 2.99565
1044 1 1 11.3812 7.33324 0.757928
570 1 1 7.5795 7.49514 0.136875
498 1 1 14.5423 7.40774 2.70269
1422 1 1 13.6877 8.08944 2.15
1039 1 1 11.7088 5.22341 4.14833
188 1 1 15.3942 9.82695 0.868224
1000 1 1 15.5559 8.9714 0.187612
159 1 1 13.4746 7.77273 4.369
1033 1 1 14.4776 9.52015 3.99083
7397 1 1 16.3148 6.89977 3.70797
1443 1 1 16.9212 6.05882 3.04426
1316 1 1 18.2637 5.21967 2.77291
162 1 1 16.552 8.75129 3.6326
959 1 1 17.2096 7.34639 2.34058
7525 1 1 0.49756 9.14582 3.71297
206 1 1 1.11244 8.0938 2.03304
1852 1 1 1.39857 7.14153 3.22059
7841 1 1 3.21862 7.91965 2.20286
175 1 1 0.800833 8.96249 2.479
201 1 1 3.38935 10.614 3.54527
983 1 1 3.06215 8.37366 3.22826
1048 1 1 5.89645 9.9074 1.8892
571 1 1 4.72395 9.67716 2.69528
1089 1 1 6.57756 7.9477 4.92262
653 1 1 6.77167 9.98739 1.09994
7862 1 1 5.60104 9.753 0.648233
1420 1 1 7.85171 9.7344 4.17984
973 1 1 9.48409 8.85143 1.65196
228 1 1 10.1246 6.82495 2.59159
575 1 1 10.5683 6.88187 4.68001
7904 1 1 11.2356 7.43113 2.85672
636 1 1 13.9229 6.8094 1.99183
2154 1 1 16.0904 8.66061 1.77384
7758 1 1 17.3358 6.79299 1.07835
1718 1 1 15.8887 6.29332 1.54129
1396 1 1 16.5528 6.6637 2.33583
84 1 1 16.3405 9.5634 4.2117
308 1 1 17.972 8.66668 1.1014
1005 1 1 2.69958 10.168 2.69259
195 1 1 1.3136 10.1455 1.83708
1282 1 1 0.51319 12.256 1.42262
154 1 1 4.58876 11.4693 1.83474
685 1 1 6.33105 10.0456 3.78937
1820 1 1 4.84442 12.7699 3.93241
2215 1 1 6.29657 13.1285 1.79029
7334 1 1 8.61116 9.54171 37.3451
7822 1 1 9.66789 10.419 2.21395
232 1 1 10.5758 10.2319 2.77677
1532 1 1 10.7005 8.80026 2.04079
1983 1 1 12.2961 7.52291 2.39308
602 1 1 13.3551 9.09035 3.03759
276 1 1 13.6195 9.96194 4.12004
1074 1 1 14.0126 10.5013 3.20971
7428 1 1 14.5777 8.34523 3.36654
240 1 1 13.6023 12.6469 2.41302
7480 1 1 17.1674 10.244 3.79531
877 1 1 18.2751 10.8287 2.63624
444 1 1 17.6893 9.00016 2.60262
237 1 1 17.6217 12.4344 1.33151
669 1 1 16.823 10.2222 2.15829
648 1 1 1.0338 10.8089 2.65081
1173 1 1 2.32889 15.9525 1.05816
1486 1 1 1.66151 12.2931 1.49936
342 1 1 5.88547 12.5695 2.9299
7536 1 1 6.31239 13.419 0.341716
1135 1 1 8.31641 13.2199 37.5992
691 1 1 7.5864 11.6646 0.141136
225 1 1 10.8425 14.136 0.480379
253 1 1 9.8716 11.4124 2.98124
1103 1 1 11.1391 11.8791 3.78969
574 1 1 11.3738 11.0389 0.606277
7893 1 1 14.1971 14.3971 1.2723
1533 1 1 10.8208 13.2906 4.17284
610 1 1 14.094 10.0782 1.03931
1825 1 1 12.6688 10.6697 2.46026
1073 1 1 16.1118 11.7864 1.46527
967 1 1 17.8575 12.2803 2.4479
667 1 1 16.8514 13.1101 4.57231
597 1 1 17.2002 11.9033 0.166143
204 1 1 1.31725 14.927 4.94911
7052 1 1 17.0319 13.649 1.21642
1078 1 1 0.97343 14.0968 2.55695
1529 1 1 2.68932 11.5771 3.17804
125 1 1 3.4836 13.8317 2.64456
7888 1 1 0.256602 13.5517 0.899318
1136 1 1 5.41479 15.9061 3.35211
255 1 1 6.03776 15.0267 0.647072
704 1 1 4.21196 13.9922 1.18858
690 1 1 9.23034 13.9746 1.81447
1017 1 1 9.0484 10.6354 0.299624
16 1 1 6.90351 12.1878 0.682605
344 1 1 10.4751 13.3275 37.5367
304 1 1 9.28791 11.4418 1.89025
379 1 1 12.0786 12.6554 2.99258
1153 1 1 14.6818 13.8662 2.02354
878 1 1 13.4505 11.3654 2.41055
273 1 1 14.4102 13.0993 2.90776
1537 1 1 15.4755 10.9552 2.27808
990 1 1 16.5739 12.7475 1.49669
1042 1 1 17.5078 13.6142 2.2301
7993 1 1 16.5274 15.5959 2.20606
85 1 1 1.92381 13.6121 1.90484
2367 1 1 1.39575 16.3299 2.38181
755 1 1 5.49734 15.6708 4.70314
693 1 1 1.4329 15.2076 1.96686
7123 1 1 4.09927 14.4469 2.27357
374 1 1 4.81378 16.0734 2.37521
773 1 1 7.10119 13.053 1.23302
2343 1 1 9.36573 15.2342 36.5496
687 1 1 11.2112 16.5268 1.87312
1573 1 1 11.2417 14.9703 37.4125
2661 1 1 10.8776 16.4327 0.8204
7945 1 1 11.7309 13.8749 1.21836
31 1 1 13.3988 16.8911 2.44782
2062 1 1 10.5593 14.7815 3.72689
433 1 1 13.3928 15.1193 4.54275
1187 1 1 11.8191 14.0148 2.87764
7147 1 1 15.346 16.4182 3.86829
790 1 1 13.8135 12.755 1.42231
629 1 1 17.3103 14.6201 2.55522
7903 1 1 17.1194 16.7582 1.17573
1561 1 1 1.18366 15.9917 1.30511
2037 1 1 18.5843 15.3132 2.25786
439 1 1 4.33316 14.8237 0.338628
1446 1 1 2.8611 13.9468 1.74511
643 1 1 1.91582 14.4546 2.79425
7455 1 1 4.53146 16.8165 1.52281
1453 1 1 6.70484 16.6641 1.43806
370 1 1 4.42827 16.338 3.84441
1133 1 1 10.1282 16.9409 1.88117
1485 1 1 6.30501 17.6754 0.963973
1131 1 1 6.96483 17.4464 1.98257
1134 1 1 9.04132 18.4965 36.537
7980 1 1 8.64583 17.113 1.02331
7901 1 1 6.85196 13.8823 6.70461
416 1 1 10.536 16.6626 5.4625
740 1 1 9.80825 0.0200143 2.64502
7838 1 1 13.7761 17.3947 1.31349
982 1 1 13.7136 14.7097 2.32773
64 1 1 12.0475 14.2341 4.2343
1107 1 1 12.8307 15.6767 2.1859
7040 1 1 13.2443 0.130254 2.03164
670 1 1 16.372 16.3902 3.37244
1469 1 1 13.9667 15.1448 36.6536
282 1 1 0.106616 17.8422 4.53424
398 1 1 0.310011 1.00006 1.98327
899 1 1 2.72826 16.6716 1.99686
7926 1 1 4.83239 0.862476 0.60166
727 1 1 4.21061 18.2369 2.83703
293 1 1 5.14416 18.8158 2.75264
207 1 1 5.61928 17.1761 2.26044
363 1 1 5.21869 17.0603 4.09409
726 1 1 10.8668 0.296126 2.36245
292 1 1 9.05183 0.445363 0.395266
377 1 1 9.9885 18.4395 1.04786
781 1 1 11.4501 0.60487 1.18567
7550 1 1 12.459 17.7214 2.83826
1250 1 1 14.6722 15.6987 3.36452
375 1 1 14.6061 16.8802 3.21209
391 1 1 10.88 17.7977 0.102477
754 1 1 16.4116 17.7194 5.01285
7987 1 1 15.4433 18.5218 1.01993
1272 1 1 16.9842 17.0432 4.04663
465 1 1 13.9477 18.3767 3.4226
1474 1 1 0.16813 17.1748 2.57844
1590 1 1 16.4938 18.5475 3.07224
7560 1 1 18.0209 17.7805 0.902006
40 1 1 18.697 17.6842 1.74316
115 1 1 3.42209 18.2302 4.56813
7651 1 1 3.9702 2.5508 3.05876
816 1 1 1.82877 16.8935 3.91129
7848 1 1 2.84404 2.57476 3.86777
7678 1 1 4.21108 1.37997 3.78956
487 1 1 7.42507 0.353202 0.921069
937 1 1 6.42042 17.9475 4.13272
1584 1 1 7.26865 18.1752 1.12837
1094 1 1 8.07257 16.8804 2.95667
7 1 1 12.6158 0.538108 3.7694
7984 1 1 10.8833 16.7776 4.02995
501 1 1 12.6384 0.694778 5.20749
7911 1 1 13.2224 1.30257 4.29559
7990 1 1 13.0661 17.7242 3.94626
139 1 1 17.4157 3.54786 4.25073
382 1 1 15.9124 0.858144 3.51129
2033 1 1 18.6647 17.9856 5.97547
7887 1 1 15.0378 0.797292 4.24736
1110 1 1 18.6204 1.89146 1.61355
7992 1 1 18.8067 0.0712811 3.26533
1481 1 1 18.0611 0.748711 2.95285
800 1 1 1.46638 1.67578 3.47879
917 1 1 3.91398 1.52681 6.60849
47 1 1 2.25698 4.5599 3.36358
728 1 1 2.62305 1.16397 4.15295
321 1 1 2.604 3.66945 2.70212
841 1 1 6.08585 18.1543 2.6594
7253 1 1 6.03243 0.937645 5.97306
7896 1 1 4.76619 1.03744 2.05891
7616 1 1 8.53796 0.74808 4.2887
520 1 1 4.7724 3.63847 5.39522
7296 1 1 7.28208 2.22538 5.80134
41 1 1 10.9691 18.6977 4.43924
863 1 1 9.18359 1.15041 5.04801
829 1 1 8.04234 1.53575 5.09292
553 1 1 11.5072 0.848014 5.61238
2232 1 1 12.232 3.39665 3.75323
7856 1 1 9.37023 0.954665 2.41833
2038 1 1 14.567 1.83583 4.33246
1223 1 1 13.0335 2.58771 4.13012
1540 1 1 16.0042 2.64362 3.47151
780 1 1 17.6055 2.37191 3.54037
1554 1 1 18.0506 2.13943 2.52738
7638 1 1 0.0362322 3.80326 4.31573
7228 1 1 1.60735 5.84965 4.56119
1158 1 1 0.631335 4.91471 3.2345
7661 1 1 4.75531 2.90076 1.95247
7715 1 1 3.00674 4.73365 2.16321
1327 1 1 5.4618 1.91885 2.4295
7685 1 1 5.7309 1.50893 5.04673
1216 1 1 5.87145 2.77021 4.98354
2136 1 1 5.85312 2.79303 3.30696
886 1 1 8.90426 2.21936 1.88842
1336 1 1 7.30295 3.19126 5.42932
7700 1 1 7.32031 3.52381 3.30334
876 1 1 10.4405 2.58629 5.77266
588 1 1 8.76119 4.04515 5.25273
2150 1 1 9.94026 2.57501 3.25525
2103 1 1 10.0492 4.59195 2.56058
147 1 1 11.2505 2.09386 4.14576
1597 1 1 12.7974 6.69468 3.82405
2099 1 1 15.5508 3.61215 3.68776
1269 1 1 13.4862 3.42673 3.75505
1037 1 1 15.5445 3.1638 4.60234
514 1 1 13.3284 4.44326 5.1881
432 1 1 15.5479 2.62853 2.38262
1231 1 1 17.9942 7.00126 4.77051
483 1 1 16.9251 4.68033 4.88342
364 1 1 18.0769 2.74205 6.65009
910 1 1 0.120411 3.35808 5.46273
6804 1 1 17.9146 5.86655 5.83905
489 1 1 2.11122 7.8835 2.06697
35 1 1 2.52307 3.56569 0.642648
884 1 1 1.17283 6.64978 2.15843
7607 1 1 1.12566 3.47868 4.60755
1280 1 1 4.27197 4.28133 3.99649
528 1 1 5.21718 4.37399 3.57602
767 1 1 3.31052 2.95141 2.4823
1381 1 1 7.15414 4.60338 3.31116
1296 1 1 8.69663 5.11571 3.40203
587 1 1 7.99597 6.1569 2.39689
1331 1 1 7.39554 3.99697 4.52657
2126 1 1 12.5751 6.51734 5.87805
576 1 1 9.66315 4.20102 4.67951
217 1 1 8.19921 3.32545 0.607141
387 1 1 13.9183 4.87906 4.03069
1265 1 1 14.6055 4.60913 3.08059
1377 1 1 14.4162 6.30461 3.28442
1670 1 1 17.1803 5.53855 4.06593
954 1 1 15.6077 4.54598 3.17802
1202 1 1 16.0556 5.04992 4.5666
68 1 1 15.9855 4.97835 2.26931
525 1 1 17.4573 4.83371 3.14144
481 1 1 16.2462 6.70927 4.98711
112 1 1 17.1155 5.95103 5.15603
1194 1 1 0.384586 3.88413 3.08956
1241 1 1 1.50755 7.97707 4.38262
7931 1 1 0.02224 6.30409 5.24989
2357 1 1 3.10768 6.17305 2.61186
966 1 1 4.71241 7.0836 1.07815
7823 1 1 3.78885 6.80255 1.68761
1885 1 1 4.66359 4.33638 2.3245
1051 1 1 5.36393 6.16896 1.73627
1098 1 1 6.84891 5.81996 5.67439
555 1 1 11.328 5.53416 5.55364
446 1 1 11.6843 4.28368 3.98485
1378 1 1 9.71422 5.69331 3.42013
1222 1 1 11.5261 7.01191 5.2535
7432 1 1 15.5617 6.84581 2.9992
948 1 1 13.1857 2.2432 2.92943
606 1 1 13.545 7.11985 5.97412
1360 1 1 18.6966 7.9792 1.07732
1648 1 1 18.2616 7.9047 4.2734
1968 1 1 17.2928 7.54163 7.4034
1355 1 1 1.60237 6.91943 4.97474
522 1 1 2.42966 8.13805 4.11096
441 1 1 2.61182 9.3534 3.65117
2071 1 1 1.83269 6.15506 5.89256
560 1 1 18.3473 6.98923 1.57605
1409 1 1 3.67973 7.45843 3.11718
568 1 1 6.66717 8.3301 2.84385
90 1 1 3.4979 6.82074 4.7336
1262 1 1 4.71772 8.46563 2.97271
1376 1 1 7.02903 7.44513 3.71774
7843 1 1 5.85899 7.30622 4.24804
1344 1 1 8.98182 6.78817 3.71708
988 1 1 8.99638 5.79572 5.17884
865 1 1 7.15406 6.16034 0.687663
140 1 1 12.18 4.50073 4.9713
173 1 1 8.912 4.69196 1.32279
462 1 1 10.7748 8.48985 3.66813
649 1 1 11.925 5.55606 6.45651
160 1 1 15.872 7.87665 3.34057
556 1 1 15.2966 8.55579 4.16802
7804 1 1 15.809 7.16426 6.19763
996 1 1 0.530194 8.06339 3.60938
557 1 1 16.8815 8.29706 2.67059
393 1 1 0.612818 11.4671 4.37689
7928 1 1 2.87867 9.02272 4.68955
7322 1 1 4.53513 9.62622 4.25849
1365 1 1 3.70049 8.86031 4.08472
1287 1 1 4.2055 7.15481 3.90676
7806 1 1 7.5298 8.3068 4.33714
315 1 1 5.78033 11.8088 3.82689
358 1 1 5.76808 8.92319 3.95706
1482 1 1 7.28809 9.77855 2.96429
1724 1 1 8.64059 7.02789 5.21685
2338 1 1 9.80745 9.7395 5.66993
618 1 1 9.80994 10.4883 3.99902
7377 1 1 9.11273 10.8199 6.85999
1105 1 1 13.3085 9.77521 6.01896
593 1 1 9.50218 7.6849 4.35692
1826 1 1 11.7736 8.88191 1.73263
211 1 1 11.9843 7.45205 3.82574
1072 1 1 12.8232 8.68515 2.10423
1478 1 1 13.6005 8.09678 3.36421
7395 1 1 15.4619 8.34182 5.53316
108 1 1 12.6518 8.84402 4.08096
1637 1 1 18.1801 7.97456 2.54676
7880 1 1 18.0859 10.0499 4.16779
1439 1 1 18.3021 8.84956 3.71417
997 1 1 18.5749 8.86246 1.9101
327 1 1 0.223592 11.2557 37.3505
7791 1 1 3.71111 11.0481 4.97324
925 1 1 5.34868 8.43115 4.90493
7482 1 1 3.50356 9.50803 3.18323
2122 1 1 5.05359 11.3158 4.43428
1008 1 1 6.10645 12.7302 4.49008
586 1 1 6.20554 9.53061 2.86084
1049 1 1 8.75025 12.2477 2.60054
2305 1 1 9.45519 11.4302 4.10518
536 1 1 11.0117 9.75097 3.83572
492 1 1 8.85182 10.0749 3.52846
1984 1 1 6.63289 12.3617 37.0784
213 1 1 10.5138 9.05207 5.17352
1939 1 1 11.8667 8.89512 4.90356
638 1 1 13.7913 9.41723 1.63182
1822 1 1 11.9231 11.587 4.93302
955 1 1 11.6026 10.8031 4.37211
600 1 1 13.4722 11.8362 3.4472
1113 1 1 17.5364 8.77243 4.42134
1631 1 1 15.9169 9.53759 3.20732
642 1 1 18.423 10.0178 5.50927
757 1 1 0.0881084 9.79642 2.54326
2320 1 1 16.5202 8.55675 5.95187
6569 1 1 18.676 9.49553 6.48224
1128 1 1 1.27003 11.5528 5.81493
1427 1 1 1.45535 10.474 3.99712
1878 1 1 18.8396 11.8455 2.19645
1411 1 1 3.58045 14.9886 3.19939
1450 1 1 4.48729 12.0932 2.74492
1093 1 1 3.724 12.3231 5.16895
216 1 1 4.72265 14.4241 5.95748
1357 1 1 7.0115 12.1924 5.21316
1476 1 1 8.35934 14.0189 4.24391
1112 1 1 7.425 11.3306 3.24377
277 1 1 9.92936 12.9925 1.63755
424 1 1 8.9536 9.87605 1.42078
7829 1 1 10.2363 13.2989 4.9507
1507 1 1 15.6095 10.7923 4.30946
271 1 1 15.1654 10.524 3.12825
7811 1 1 13.1513 11.8997 1.50148
991 1 1 12.9754 14.5589 3.81551
1942 1 1 15.836 11.3736 3.44574
639 1 1 18.0893 9.9173 3.18442
1046 1 1 16.3675 12.0712 4.4156
712 1 1 18.4815 11.8606 4.77487
251 1 1 18.0115 12.2195 5.94994
1077 1 1 18.3835 13.5339 2.80623
1596 1 1 0.401731 10.2072 3.53957
7403 1 1 1.1653 12.9008 2.46761
7921 1 1 1.49581 11.41 3.51156
7835 1 1 1.53898 13.1535 3.88484
350 1 1 2.52364 15.3967 2.37381
1082 1 1 4.30808 14.4058 4.65047
7503 1 1 5.09233 14.8395 2.92558
1504 1 1 5.30077 14.5807 4.20222
7487 1 1 6.83507 13.9063 2.55711
7784 1 1 4.9643 13.7647 4.7587
584 1 1 8.01349 14.4999 0.556095
1175 1 1 7.22089 13.9717 4.22463
227 1 1 9.45738 13.5182 0.748367
1906 1 1 9.44486 12.0084 0.974789
1657 1 1 6.84633 12.2589 3.56595
628 1 1 14.461 11.0718 4.02375
678 1 1 13.0922 13.0475 3.17602
6719 1 1 16.6319 12.1987 2.47105
1120 1 1 17.5991 14.6427 3.75649
7515 1 1 0.114624 14.243 2.00824
1389 1 1 18.6922 13.0381 1.77266
7870 1 1 0.699638 15.4772 4.0135
688 1 1 1.2773 14.5592 3.62499
724 1 1 1.19454 16.146 3.40167
7602 1 1 3.998 16.8339 5.98515
1145 1 1 2.95902 12.899 5.93204
1550 1 1 3.92172 15.8007 5.94849
1217 1 1 6.44183 14.8783 4.26697
1301 1 1 5.49394 14.7147 5.28232
7531 1 1 8.95223 12.5896 1.68537
2017 1 1 10.0032 12.6116 3.60447
1139 1 1 10.7861 14.6616 2.54088
736 1 1 11.813 12.0115 5.88003
381 1 1 9.85143 12.429 2.51954
19 1 1 11.2084 15.8944 5.58879
1184 1 1 12.4577 12.8237 5.50645
1432 1 1 12.5578 14.5018 4.9938
317 1 1 12.2198 16.2686 2.94532
1151 1 1 15.5244 13.5619 2.8006
320 1 1 14.9343 14.1504 5.58635
7923 1 1 15.8855 14.8205 3.95337
234 1 1 16.2019 14.8618 2.84648
2351 1 1 15.2655 15.4228 5.51163
663 1 1 17.7187 15.6468 2.98796
1445 1 1 17.5847 13.8968 4.44945
1567 1 1 17.5561 14.8844 4.82814
7968 1 1 18.5905 15.7086 3.43074
812 1 1 1.38698 18.1214 4.11692
888 1 1 3.22736 17.7553 2.7918
1156 1 1 4.59079 15.3958 4.20294
331 1 1 3.9588 15.5826 2.13432
336 1 1 4.44079 16.3252 4.87995
2837 1 1 3.41885 14.8003 4.48668
1211 1 1 6.28721 16.3396 2.51023
1179 1 1 4.56103 17.669 4.86747
423 1 1 9.20676 16.8218 2.766
1530 1 1 6.30306 13.8849 4.93937
27 1 1 9.76889 17.3243 7.03019
411 1 1 10.6088 15.7054 2.98373
1541 1 1 12.1062 18.6496 4.33303
7508 1 1 12.9146 18.6048 3.20175
766 1 1 11.2964 15.7625 7.62444
316 1 1 11.2473 16.7142 7.06747
6720 1 1 12.6497 14.6185 1.77378
1147 1 1 11.8242 17.5063 3.87036
7551 1 1 14.285 16.9704 4.30662
328 1 1 15.7884 18.0294 2.21678
443 1 1 16.4873 16.8348 2.27498
1149 1 1 17.661 16.1332 4.04397
692 1 1 18.5626 0.308357 1.69651
1958 1 1 18.6282 16.3815 4.51989
1166 1 1 0.715966 18.6922 6.60573
686 1 1 3.83813 0.724781 2.71489
847 1 1 0.158539 18.4382 2.43154
2492 1 1 3.80732 0.42022 0.993268
248 1 1 4.51037 0.435544 3.48542
325 1 1 4.33196 17.2208 2.66817
1122 1 1 4.44743 0.511516 4.86256
605 1 1 7.53781 0.429405 4.76336
777 1 1 5.4798 15.8754 6.56736
813 1 1 7.45818 14.7123 3.26457
1174 1 1 9.03398 14.9483 4.12521
1385 1 1 8.52744 15.841 5.2244
820 1 1 11.2634 17.4813 2.84877
6 1 1 6.75084 15.7204 3.22533
7150 1 1 9.7789 0.163795 4.38738
869 1 1 14.3706 18.7147 4.22404
460 1 1 12.8649 16.5251 4.82685
20 1 1 15.4701 18.1726 3.43271
33 1 1 17.8439 18.5657 2.22657
437 1 1 16.3027 0.542753 1.41035
409 1 1 15.8894 0.606691 4.93134
834 1 1 2.95212 18.2762 1.65752
867 1 1 18.3652 0.538442 5.65031
807 1 1 0.66919 1.61433 7.54754
794 1 1 1.5676 0.159176 5.14472
1526 1 1 1.53131 1.19044 4.40387
1171 1 1 2.00495 2.12858 5.09338
819 1 1 2.44893 18.129 6.22624
763 1 1 1.98195 1.11894 5.28755
778 1 1 2.9422 0.545636 5.03752
971 1 1 5.49234 0.287877 5.51934
1729 1 1 6.17299 17.1757 3.30856
1248 1 1 5.37471 17.8938 5.58879
734 1 1 6.35708 16.2399 4.14681
1180 1 1 8.34994 18.4846 6.31877
1973 1 1 11.2844 1.09448 4.61478
353 1 1 10.6789 0.0370456 6.27155
1308 1 1 8.96337 2.53212 5.32374
511 1 1 11.0854 3.02096 5.06612
2867 1 1 11.4041 1.96472 5.3177
818 1 1 12.4069 17.7255 4.63327
1706 1 1 11.3113 17.5632 4.76291
1213 1 1 14.4875 3.4799 3.21513
1514 1 1 18.5005 2.38443 4.33031
1672 1 1 15.1844 3.74194 5.6313
2347 1 1 17.5809 1.04514 4.73237
1549 1 1 16.6689 0.648324 4.1592
1543 1 1 16.7228 2.63772 6.60009
7914 1 1 17.3791 1.42658 2.68083
1240 1 1 17.3079 0.885984 6.43662
1205 1 1 17.7275 1.55613 5.7685
491 1 1 2.93304 3.67795 4.44824
1129 1 1 2.06809 3.33225 5.38436
1608 1 1 2.09169 3.326 6.76853
1932 1 1 5.16002 1.21328 4.12884
93 1 1 10.1611 1.37113 5.14413
858 1 1 4.47249 0.647968 6.12786
503 1 1 6.23563 2.01893 6.03423
977 1 1 8.32098 3.37116 5.98621
2814 1 1 9.88562 18.3921 5.20166
857 1 1 8.52548 1.9311 7.02387
14 1 1 9.40448 1.19427 6.54104
1181 1 1 8.06442 3.27636 6.99656
850 1 1 12.1272 2.73342 4.75595
1345 1 1 13.5597 1.71826 5.20258
2026 1 1 10.5595 17.7816 3.69823
2020 1 1 15.4453 0.724046 2.08195
1472 1 1 14.0122 2.89006 5.19743