ITEM: TIMESTEP
100
ITEM: NUMBER OF ATOMS
8000
ITEM: BOX BOUNDS pp pp pp
0.0000000000000000e+00 1.8820720577620570e+01
0.0000000000000000e+00 1.8820720577620570e+01
0.0000000000000000e+00 3.7641441155241139e+01
ITEM: ATOMS id mass type x y z
547 1 1 0.237393 1.04252 0.855864
835 1 1 1.25719 0.71867 1.14206
319 1 1 2.70103 1.20082 0.574772
96 1 1 3.1736 0.0920661 0.25916
917 1 1 3.60471 0.119728 1.27589
796 1 1 3.81208 1.09466 1.17558
38 1 1 4.84834 0.685803 1.09135
696 1 1 5.89025 1.29895 0.763818
775 1 1 5.41779 0.826678 37.0411
1208 1 1 7.1619 1.14917 0.513364
1178 1 1 7.97992 0.57681 0.313993
7287 1 1 8.98485 0.342566 0.941507
814 1 1 9.95546 0.613411 0.447924
838 1 1 10.9871 0.74846 1.71186
7861 1 1 11.0709 0.225599 0.573636
7938 1 1 12.2541 0.94608 1.23814
116 1 1 11.7274 1.55049 0.13178
501 1 1 13.2512 1.12355 0.621467
7230 1 1 14.2687 0.0163761 0.162209
7549 1 1 14.8623 0.390881 1.20714
1142 1 1 16.6434 1.32284 1.54009
7560 1 1 17.2107 0.136616 0.494575
34 1 1 17.5951 1.24762 0.61342
753 1 1 18.3995 0.068172 0.782663
430 1 1 0.826953 2.15686 0.93437
109 1 1 1.88733 1.74059 0.930953
1675 1 1 1.68645 1.38869 1.85292
475 1 1 2.11738 3.07235 0.742836
1160 1 1 2.70523 2.16936 1.43076
1319 1 1 1.74676 2.66015 1.60218
841 1 1 4.27995 2.04503 1.09776
7316 1 1 3.44409 2.54191 0.101289
493 1 1 5.53171 2.20937 0.692723
405 1 1 6.57621 2.1455 0.478082
5 1 1 7.59453 2.40367 0.789366
7646 1 1 8.29308 1.47444 0.780002
7 1 1 9.72672 2.524 1.05697
17 1 1 9.04143 2.20933 37.5226
1385 1 1 9.82628 1.29374 1.32453
421 1 1 10.6885 1.57794 0.543447
18 1 1 9.74363 3.18776 0.210683
1270 1 1 12.4442 2.84918 0.168845
149 1 1 13.8993 2.22884 0.206758
7987 1 1 15.9789 1.0701 0.396336
113 1 1 15.9307 3.19751 0.787156
39 1 1 15.5204 2.13332 0.461094
746 1 1 16.7156 2.14919 0.796256
7601 1 1 18.6185 2.02237 1.14693
7633 1 1 17.4698 2.19655 0.0553242
2432 1 1 0.595903 4.53102 0.839017
1237 1 1 1.042 2.89991 0.108435
209 1 1 2.80388 3.94869 1.11502
7647 1 1 1.64118 4.01607 0.846304
7253 1 1 4.38831 4.01187 1.49891
1239 1 1 3.19179 3.6972 2.12899
7607 1 1 3.51711 2.99694 1.21353
7644 1 1 7.5871 3.57777 0.761052
6856 1 1 6.74814 3.3206 0.087846
455 1 1 5.62067 3.65506 0.299744
7699 1 1 8.60435 4.49263 0.151239
765 1 1 8.09567 3.60413 1.70682
633 1 1 9.56728 4.30587 0.891125
1295 1 1 8.96308 3.3489 1.06835
779 1 1 10.5844 4.51419 1.14019
385 1 1 11.2354 3.65078 0.860164
461 1 1 13.5231 3.37463 1.03465
7303 1 1 12.1513 3.9062 0.289168
508 1 1 14.7911 3.50249 0.835116
978 1 1 14.5498 4.59788 1.04638
65 1 1 16.5996 4.14417 0.388684
420 1 1 15.6366 4.7122 0.965376
7636 1 1 16.8232 3.21456 0.293069
786 1 1 17.6363 4.03738 0.915509
356 1 1 17.4269 2.93013 1.67206
479 1 1 18.5933 4.31107 0.0939913
6956 1 1 0.454393 5.08361 0.0960351
324 1 1 1.85071 5.08047 0.0899989
362 1 1 1.35645 6.36787 0.807539
488 1 1 2.43281 5.10791 1.24268
886 1 1 4.51738 5.95477 0.855033
445 1 1 3.68037 5.35909 0.76321
3 1 1 5.66643 5.54076 0.716874
1327 1 1 7.20181 5.51519 1.25193
7250 1 1 5.86013 4.58408 1.42779
1310 1 1 8.35468 5.59023 0.963188
1026 1 1 7.62255 4.87935 0.458609
533 1 1 8.33495 5.64782 37.4762
171 1 1 9.39299 5.24674 0.54086
938 1 1 10.3494 5.76078 0.832803
7002 1 1 9.56052 5.971 37.4598
934 1 1 12.97 4.25494 1.73451
505 1 1 13.4767 5.49029 1.11389
1309 1 1 12.7688 4.59118 0.696693
7855 1 1 11.5035 5.17992 0.984353
7392 1 1 14.2317 5.45531 0.417323
7603 1 1 16.9392 6.09877 1.49182
2197 1 1 16.8925 5.06306 0.860931
111 1 1 15.3086 5.91806 0.754519
442 1 1 18.1271 6.12338 1.37831
478 1 1 0.410193 6.22296 1.11584
7249 1 1 0.930963 7.23633 0.65002
440 1 1 3.59924 6.22408 37.3084
528 1 1 3.45478 6.1804 1.53999
1461 1 1 5.44377 6.2007 1.74344
1366 1 1 4.15268 7.63492 37.393
7819 1 1 5.13493 6.84052 0.217838
7731 1 1 5.84479 7.38412 1.20429
1417 1 1 7.57949 6.48017 1.08187
7659 1 1 8.87222 6.47738 0.924636
537 1 1 10.8028 6.23741 37.0648
623 1 1 11.3649 6.19982 1.54121
973 1 1 10.6257 6.89208 0.795542
538 1 1 11.7129 7.30303 1.30437
591 1 1 11.599 6.13352 0.451254
7591 1 1 12.9038 6.64956 1.12405
68 1 1 15.9643 6.64287 0.435204
579 1 1 14.7107 6.80029 0.833901
7754 1 1 16.9051 6.09333 0.493862
554 1 1 15.4174 7.22953 1.42236
7641 1 1 18.5998 6.12523 37.6003
159 1 1 17.9289 7.40698 0.63905
7879 1 1 1.2055 8.2762 0.901556
7239 1 1 1.10451 7.75129 37.1479
580 1 1 2.24248 7.49461 0.271193
1369 1 1 2.73135 6.41625 0.547149
1048 1 1 4.12778 8.41097 1.18067
6896 1 1 4.06855 6.96548 1.85557
653 1 1 6.79368 7.91493 1.14437
647 1 1 5.96016 8.7014 1.56564
539 1 1 8.09457 7.66134 1.38518
137 1 1 8.30755 7.92978 0.219263
228 1 1 9.80856 8.40412 0.0385593
1422 1 1 9.82861 8.57588 1.14682
575 1 1 10.4135 7.65625 0.0665396
462 1 1 10.8902 7.96222 1.29296
585 1 1 11.6025 7.15674 0.259728
532 1 1 10.6632 8.98827 36.9205
7432 1 1 12.0596 8.28077 1.04595
7821 1 1 12.5602 6.82657 0.288406
7776 1 1 13.1663 7.49074 1.9786
188 1 1 13.6773 6.61568 0.470601
556 1 1 15.0563 8.13425 0.812823
1031 1 1 14.5499 7.56058 0.024693
519 1 1 18.0817 8.48483 37.5157
1473 1 1 16.4745 7.8998 1.52187
187 1 1 15.9728 7.71811 0.507266
959 1 1 0.00528733 7.82912 0.982226
7924 1 1 0.728203 9.30402 0.301679
7841 1 1 1.78058 9.75072 0.488125
197 1 1 3.15359 8.77268 0.867913
1314 1 1 2.06429 8.53532 0.323405
164 1 1 3.43373 9.68246 0.275052
1053 1 1 3.92833 9.44732 1.5363
215 1 1 5.20829 9.17909 0.846063
300 1 1 3.96107 10.3415 0.933501
7748 1 1 7.59106 8.60068 1.13578
7011 1 1 6.72799 9.75072 37.4623
645 1 1 5.93924 10.2581 0.547695
95 1 1 8.0635 9.34707 0.710734
618 1 1 8.83916 8.34972 0.979065
178 1 1 9.60585 9.58958 0.89658
91 1 1 11.0791 9.06204 1.0476
7772 1 1 10.506 10.1845 0.446713
607 1 1 10.9863 10.0282 37.05
7912 1 1 12.0398 8.59218 37.4421
223 1 1 13.3633 9.19273 0.675171
230 1 1 13.7829 10.0618 37.1005
444 1 1 15.882 10.4478 0.599611
1072 1 1 15.7143 9.06385 0.787615
636 1 1 16.6765 9.31967 0.437721
114 1 1 16.914 10.4329 0.614507
183 1 1 15.8134 9.86411 1.75966
7758 1 1 17.4317 9.22045 1.02796
281 1 1 18.4301 9.20057 0.730053
7525 1 1 18.4046 9.47749 1.70605
962 1 1 0.794542 10.321 0.964865
7849 1 1 1.26204 10.5875 37.4267
7854 1 1 3.04565 10.8575 0.65197
243 1 1 4.16166 11.4213 0.653005
7891 1 1 5.23386 10.9905 1.06828
7541 1 1 6.37942 11.285 0.663358
7822 1 1 7.01161 10.1594 1.02429
1148 1 1 6.49719 11.743 37.1982
7864 1 1 8.61934 10.8962 0.486837
7862 1 1 8.86794 9.83458 0.0744777
1105 1 1 9.61528 10.6674 0.745859
1979 1 1 8.59267 10.1884 1.35698
142 1 1 11.2615 10.9482 0.757178
7904 1 1 12.0646 9.69007 0.709946
993 1 1 12.2702 10.7838 0.31103
1507 1 1 13.0222 11.6236 1.90091
235 1 1 12.0983 10.6814 1.53656
6316 1 1 13.5861 11.0076 0.016628
7480 1 1 16.3082 10.8977 1.53079
6675 1 1 14.5307 10.8009 0.518039
144 1 1 14.7201 9.67947 1.25068
6997 1 1 17.4725 10.9012 1.36555
7350 1 1 18.1728 11.1004 0.0293296
238 1 1 18.5892 10.6103 0.867443
1282 1 1 2.38127 12.7605 0.249347
1136 1 1 4.65851 12.5521 0.237961
685 1 1 2.97295 11.813 1.17794
7847 1 1 5.43142 11.8266 0.127947
175 1 1 5.56695 12.9069 1.52579
296 1 1 6.93623 13.5586 37.141
970 1 1 7.34839 11.3302 0.364934
7499 1 1 7.70861 12.5555 0.00567694
1102 1 1 7.84818 12.9797 1.5747
1509 1 1 8.66901 12.5365 0.494203
660 1 1 9.53622 11.9241 0.469576
7516 1 1 11.6671 13.6626 0.712432
333 1 1 12.2196 11.9644 0.579282
1100 1 1 10.4174 12.0946 1.18998
7777 1 1 10.9914 12.5673 0.332226
1182 1 1 13.1343 12.1594 0.39693
271 1 1 14.0307 11.7046 1.06733
7512 1 1 14.605 12.6222 37.6249
683 1 1 14.4599 12.6775 1.20031
285 1 1 15.8131 13.0465 0.625878
280 1 1 16.5051 12.2692 0.263476
4 1 1 17.4671 11.7404 0.65323
237 1 1 0.301378 12.0933 1.06193
7880 1 1 0.189999 13.8755 1.024
648 1 1 1.64198 13.79 0.548063
202 1 1 0.965068 12.9159 0.663467
7921 1 1 2.83848 14.0061 1.30294
1173 1 1 3.35127 13.2476 0.52492
246 1 1 3.78714 14.1427 37.347
7817 1 1 4.10751 12.7281 1.04458
290 1 1 5.67293 13.9033 1.4798
7535 1 1 5.99416 13.0096 0.43678
287 1 1 6.89492 13.3222 0.572411
229 1 1 8.44038 13.7298 0.112268
1070 1 1 8.0533 14.2711 1.27123
1573 1 1 9.38231 13.283 0.295813
1908 1 1 9.07317 13.2028 1.17559
7502 1 1 9.81407 14.4544 37.2949
7610 1 1 8.60927 14.8646 0.38583
7983 1 1 10.3413 14.2326 0.889465
1069 1 1 14.0448 13.6583 1.01716
204 1 1 17.3513 13.4792 37.5717
1108 1 1 17.2144 13.611 0.945164
6746 1 1 16.4394 14.1793 0.216589
154 1 1 18.1621 13.026 0.316591
194 1 1 18.4528 15.8453 0.465563
873 1 1 1.24618 14.6327 0.359491
1529 1 1 2.3419 15.1428 0.765654
7574 1 1 4.0365 15.8219 0.116453
85 1 1 4.04763 14.7846 0.572026
7930 1 1 4.92934 15.8659 0.990964
7897 1 1 5.00833 14.4742 0.796422
345 1 1 7.33645 14.9961 0.279168
344 1 1 9.84892 15.056 0.725503
738 1 1 8.64236 16.2878 37.5193
7929 1 1 10.6244 15.708 0.606304
1533 1 1 11.5338 14.8689 0.635077
7436 1 1 12.1259 15.6799 0.365584
7858 1 1 14.2097 14.9941 0.415988
7920 1 1 15.6583 14.8692 0.929677
670 1 1 16.8938 15.5905 0.777489
278 1 1 18.1083 16.232 1.69378
7870 1 1 17.7604 15.0495 1.43345
791 1 1 1.33835 17.1835 0.106275
398 1 1 0.932175 17.3048 1.44773
310 1 1 1.00634 16.207 0.92175
331 1 1 2.48065 17.3953 0.394988
7602 1 1 1.89993 16.2823 0.544712
397 1 1 3.74755 17.0694 1.01156
7086 1 1 2.91238 16.1768 0.0936108
7555 1 1 4.71111 16.5427 1.79986
340 1 1 6.53624 16.9197 1.01524
7695 1 1 5.90248 16.2857 0.14677
768 1 1 7.43283 16.1625 0.616173
249 1 1 7.8148 17.0044 37.5738
6936 1 1 7.5205 17.3385 1.16642
7667 1 1 9.89117 17.0642 0.136054
286 1 1 8.77886 17.1404 0.370089
7613 1 1 9.4257 16.7108 1.28564
675 1 1 10.9039 17.2305 0.145387
7437 1 1 13.0152 18.0304 1.21344
7994 1 1 11.2703 16.0487 1.82535
7951 1 1 12.1918 17.1665 0.863227
64 1 1 13.6116 17.012 1.45355
7147 1 1 13.799 16.2328 0.937539
785 1 1 15.3826 17.1281 0.386104
7963 1 1 15.8461 16.1381 0.810954
1199 1 1 17.5385 16.314 37.362
834 1 1 18.2013 17.5898 37.4695
7844 1 1 17.8258 16.9226 0.810624
439 1 1 0.620295 0.0516398 0.491345
7926 1 1 2.91444 18.1938 0.958063
318 1 1 2.08696 18.7704 0.566037
7848 1 1 1.40291 18.0168 0.841759
6767 1 1 4.72825 18.7745 0.43624
7532 1 1 4.6574 17.6834 0.615438
7661 1 1 6.24339 18.4211 0.580559
7620 1 1 8.41779 18.4755 1.72741
141 1 1 7.92998 18.1099 0.475668
329 1 1 7.03961 17.6376 0.450325
338 1 1 7.24119 18.6025 1.01797
740 1 1 9.81112 17.899 0.927867
749 1 1 11.8193 18.0785 0.509931
837 1 1 14.8896 18.0223 0.605972
6832 1 1 14.0883 18.5214 1.37405
79 1 1 16.9503 18.2621 1.32679
7638 1 1 17.6927 17.7763 1.84581
1713 1 1 17.9861 0.19818 37.423
105 1 1 18.6757 17.8259 1.94781
1158 1 1 0.143017 0.505125 1.92522
491 1 1 1.01544 1.34991 2.91056
7996 1 1 3.08078 1.31801 1.88412
7651 1 1 2.43127 0.0370892 1.72615
35 1 1 1.42524 0.295054 2.05121
778 1 1 1.95411 0.873176 2.93618
323 1 1 5.76891 1.4718 1.84191
1210 1 1 7.13521 0.103625 2.68861
419 1 1 7.65912 0.636106 1.37712
1541 1 1 8.69243 0.487922 2.14849
553 1 1 9.88305 1.73068 2.99702
1130 1 1 11.7932 0.945129 2.43963
504 1 1 9.81114 0.510572 2.01277
375 1 1 12.9755 0.22222 2.55325
7779 1 1 13.0756 0.159326 1.3833
353 1 1 11.9219 0.926311 3.91413
1138 1 1 13.5355 1.02072 1.99475
7989 1 1 14.3049 1.5907 1.02439
7990 1 1 14.3551 0.126175 2.42201
784 1 1 17.5817 0.544558 1.58228
151 1 1 16.8921 0.27472 2.94544
1146 1 1 16.1205 0.151358 1.82215
899 1 1 0.020949 0.634527 3.27605
7950 1 1 0.0642211 1.56642 2.13693
483 1 1 0.722844 2.47259 1.95097
2134 1 1 1.64123 2.19488 2.88577
321 1 1 3.46032 2.49725 2.02053
802 1 1 3.46104 0.622124 3.04974
503 1 1 4.69505 1.7512 2.57366
487 1 1 6.65377 0.916473 1.75021
7616 1 1 7.11512 1.31615 2.72622
7585 1 1 7.07925 1.69213 1.42303
764 1 1 8.66031 2.06305 3.03202
496 1 1 7.75936 2.44949 2.10261
726 1 1 8.18463 1.50564 2.18039
416 1 1 8.97458 1.85906 1.56983
1308 1 1 9.5208 2.87783 3.16364
500 1 1 11.5605 1.98853 2.89696
1196 1 1 12.7809 2.29885 1.29685
460 1 1 12.528 1.82813 2.58052
7911 1 1 11.6965 1.75552 1.66949
7708 1 1 14.9406 2.54994 1.22677
422 1 1 13.8007 1.88255 2.43552
7997 1 1 13.2517 2.85387 2.63835
1223 1 1 15.4895 1.50824 1.38527
1238 1 1 16.2003 2.82892 1.74123
157 1 1 17.0725 2.32763 2.3371
1717 1 1 18.459 2.63618 2.12303
7756 1 1 0.156112 3.01552 1.0409
1634 1 1 0.407036 4.45558 1.88958
520 1 1 2.46668 2.80207 2.34307
1280 1 1 2.17259 4.2559 1.94791
7715 1 1 1.53623 3.23463 2.57438
523 1 1 0.905258 3.46124 1.70594
1932 1 1 4.34069 4.00782 2.72753
89 1 1 5.18988 3.08236 1.34495
527 1 1 5.54275 3.90235 2.00405
43 1 1 5.00966 2.64689 2.43193
60 1 1 6.7248 3.18298 1.08071
1168 1 1 6.70111 2.91717 2.22738
887 1 1 6.03665 3.79703 3.3858
7296 1 1 6.63226 3.9493 1.90699
7698 1 1 8.80367 4.22077 2.20731
1337 1 1 8.43527 4.42878 1.08201
7700 1 1 9.25834 3.09313 2.15524
217 1 1 10.0812 3.87181 3.14184
7656 1 1 10.3153 3.41023 1.68107
781 1 1 11.595 2.75194 1.56479
224 1 1 10.4051 4.44791 2.2748
616 1 1 12.2382 3.14345 2.65752
7665 1 1 11.7197 4.26564 1.56105
874 1 1 14.2283 3.28183 1.74234
7552 1 1 15.4527 3.53926 2.93836
1670 1 1 15.1613 3.46177 1.75668
1640 1 1 16.7245 3.69837 1.36757
1315 1 1 17.5419 3.24016 3.03059
525 1 1 18.2927 3.88188 2.00989
481 1 1 0.404014 5.21634 2.97743
1751 1 1 18.7411 5.29922 1.59763
6804 1 1 1.22763 5.31555 1.29182
7643 1 1 1.98545 5.26917 2.12116
1776 1 1 3.07625 5.36511 2.01201
7685 1 1 5.73526 4.85315 2.54186
1045 1 1 6.03584 6.16198 2.59535
1339 1 1 4.44652 5.07542 2.28013
130 1 1 6.57566 5.20321 2.11868
94 1 1 7.52083 4.27537 2.72732
1373 1 1 7.67706 4.69812 1.53696
1701 1 1 10.1539 5.24368 3.01979
581 1 1 10.7583 5.42261 2.10642
147 1 1 11.6955 5.0336 2.64944
954 1 1 13.4249 5.10336 2.21009
100 1 1 14.2372 4.15252 2.44875
908 1 1 15.5223 5.04173 1.93492
156 1 1 14.3422 5.64696 2.50042
1194 1 1 17.1334 5.53519 2.73252
801 1 1 16.5396 4.81955 1.91573
1316 1 1 17.7742 5.03555 1.87237
522 1 1 1.01943 6.68302 3.45229
1323 1 1 1.12349 6.15775 1.90526
1806 1 1 0.332676 7.07945 1.87045
241 1 1 1.60932 6.95592 2.44799
1409 1 1 3.00042 4.84483 3.36038
729 1 1 2.27366 6.38688 1.6291
566 1 1 4.64061 6.1742 2.75885
7718 1 1 5.6788 7.13333 2.98256
10 1 1 6.43226 6.10692 1.12362
1296 1 1 7.06512 6.34443 2.35222
7762 1 1 7.31997 7.37238 1.95411
376 1 1 7.83656 5.81775 1.89458
497 1 1 9.68238 6.75783 1.55108
555 1 1 9.95846 7.23293 3.13856
587 1 1 8.73623 6.42808 1.94715
446 1 1 10.1772 6.275 2.45319
140 1 1 10.8303 7.11419 2.02127
498 1 1 11.4416 6.05173 2.62627
1668 1 1 12.3011 6.16953 1.92842
552 1 1 13.3915 6.21014 2.30028
515 1 1 13.9955 6.78901 1.66039
1359 1 1 15.1314 6.17739 2.15373
1037 1 1 16.0025 7.22155 2.52847
1637 1 1 16.7407 6.57055 3.01597
1754 1 1 17.4328 7.49648 3.38255
1360 1 1 18.221 5.54458 2.58874
1318 1 1 17.6879 6.73553 2.51819
45 1 1 1.16036 8.19517 2.155
158 1 1 0.098025 8.40512 1.76666
81 1 1 3.33107 7.64677 1.39333
720 1 1 2.11708 8.8265 2.28612
1766 1 1 2.59647 7.59415 2.63015
852 1 1 3.14065 6.73213 2.71665
153 1 1 3.58215 7.85494 2.8994
637 1 1 5.27347 7.51408 2.10586
1781 1 1 4.67824 8.06867 2.66396
138 1 1 6.31626 7.7437 2.03482
53 1 1 6.95786 7.87472 2.78966
2177 1 1 5.98436 8.32668 2.78601
1085 1 1 6.93251 8.63483 2.02529
1727 1 1 7.96616 7.54147 2.60988
177 1 1 9.61873 7.57787 0.880252
1098 1 1 9.40917 7.77793 1.82508
890 1 1 8.96064 7.61033 2.84212
232 1 1 10.4618 8.25462 2.12557
231 1 1 11.5062 8.6002 2.40761
948 1 1 11.9644 7.3036 2.4193
1441 1 1 14.4668 8.83772 1.68799
2153 1 1 13.7863 7.70762 2.81187
193 1 1 15.4496 8.57913 1.86989
7798 1 1 15.0814 7.55132 2.38524
594 1 1 15.9434 8.61355 3.05081
7397 1 1 16.73 7.89286 2.6227
7721 1 1 18.3793 7.52676 2.24752
441 1 1 0.836134 9.34638 2.33982
7800 1 1 1.50228 9.22753 1.29635
7806 1 1 2.48131 9.93446 1.70364
6484 1 1 2.911 9.70112 3.03389
564 1 1 3.59645 8.70515 2.21785
1041 1 1 4.55866 9.54743 2.7526
374 1 1 5.25918 10.055 2.32948
7734 1 1 6.2945 9.6695 1.80802
536 1 1 7.29717 9.93127 2.41342
7377 1 1 8.08168 8.43438 2.16476
1420 1 1 7.90451 9.46844 1.71484
7774 1 1 9.333 8.97145 3.18197
7712 1 1 11.4479 9.58863 2.78353
1020 1 1 10.5931 9.44332 2.25096
1478 1 1 12.6386 8.4572 2.01172
7808 1 1 11.2983 10.0572 1.69126
1430 1 1 12.3285 9.67187 2.12873
276 1 1 15.3424 9.62992 2.58224
1033 1 1 16.9207 8.88862 2.2449
308 1 1 18.4039 9.00212 2.67987
393 1 1 0.470733 10.3177 2.11496
7931 1 1 1.45663 10.4028 1.72486
206 1 1 2.11417 10.9571 1.19487
1852 1 1 1.21989 11.0627 2.53314
201 1 1 2.18847 10.4164 2.47304
983 1 1 3.2664 10.4873 2.46159
357 1 1 6.53525 10.7986 1.73836
1376 1 1 4.31072 10.8029 2.62652
526 1 1 4.24546 11.0323 1.5742
1008 1 1 6.48709 11.8804 1.4641
1089 1 1 6.88566 11.8223 2.66029
1135 1 1 7.90634 11.6742 2.17204
1532 1 1 7.62045 10.8261 1.63626
1065 1 1 8.28126 10.8213 2.92711
615 1 1 8.96276 9.82954 2.40624
1790 1 1 9.84262 10.0712 1.79836
492 1 1 9.73703 10.6854 2.8178
227 1 1 10.9778 11.5391 3.33725
7811 1 1 11.5979 11.9039 1.45376
1044 1 1 10.9818 10.561 2.83935
638 1 1 13.4867 10.5249 2.55663
593 1 1 12.0717 11.2204 2.93614
1074 1 1 14.1831 10.5994 1.48429
7395 1 1 14.7704 10.8127 2.33216
669 1 1 15.9214 10.4242 3.18994
7804 1 1 17.0836 10.7596 2.50009
349 1 1 17.1769 9.86526 1.90569
6569 1 1 17.978 11.6466 2.58688
7322 1 1 0.369787 11.9356 2.21822
162 1 1 0.775495 11.1507 1.51908
1005 1 1 2.25978 12.4977 2.10058
327 1 1 2.0416 12.9609 1.32796
925 1 1 4.23305 12.4931 3.43631
7928 1 1 2.94464 11.3447 1.99223
233 1 1 3.89657 12.0324 2.06888
342 1 1 5.0802 11.9669 1.06078
1486 1 1 5.54042 12.6026 2.74387
1017 1 1 7.68993 12.7393 2.71511
699 1 1 8.9277 11.5007 1.44688
1103 1 1 8.98311 12.3801 2.17059
1822 1 1 10.0595 12.1833 3.30047
610 1 1 10.4693 11.5336 2.40196
1153 1 1 13.236 12.742 1.5135
1538 1 1 13.5885 13.132 2.56255
878 1 1 14.0662 12.284 2.08941
1073 1 1 15.1003 11.8266 2.24909
7444 1 1 15.2704 11.0399 1.34684
2234 1 1 16.1215 12.0238 1.60444
559 1 1 16.8374 11.9319 2.25305
7791 1 1 15.9251 12.2419 2.8875
1484 1 1 17.108 12.7876 3.32618
7757 1 1 18.4349 12.4512 1.80581
404 1 1 1.46648 13.0538 2.68104
7052 1 1 1.04159 14.546 1.35696
1128 1 1 1.92697 13.7267 1.97152
2373 1 1 4.45196 13.9373 1.45163
7180 1 1 4.79859 14.8642 3.0783
7487 1 1 4.66621 13.0379 2.14367
691 1 1 6.23348 14.2344 2.67915
2661 1 1 7.62156 13.763 3.02152
7936 1 1 6.38419 13.3199 2.06325
225 1 1 8.95719 13.1967 2.8661
1133 1 1 8.27304 14.3339 2.45375
7945 1 1 10.0227 12.7712 2.25936
736 1 1 10.252 13.2417 3.35481
1501 1 1 10.715 14.5498 1.75804
7464 1 1 10.7593 13.3564 1.01062
259 1 1 12.5038 13.8461 1.78215
2244 1 1 11.6275 13.7342 2.2967
1942 1 1 14.3351 14.3978 2.41851
1368 1 1 14.6233 13.3799 1.93709
608 1 1 14.9374 14.2136 1.22318
7515 1 1 17.0092 14.0833 1.84692
1389 1 1 17.9621 14.374 2.58473
1439 1 1 0.728928 13.1181 1.83065
1427 1 1 18.0516 14.0067 1.59994
7968 1 1 0.571936 15.4686 1.74174
686 1 1 1.26529 16.3365 2.41996
7658 1 1 1.38648 14.4962 2.30618
590 1 1 0.249211 14.4726 2.2329
609 1 1 2.76662 16.153 1.81674
7835 1 1 2.75454 14.7146 2.58246
1081 1 1 3.62964 15.4421 1.29301
1446 1 1 3.85558 15.2753 2.58272
7503 1 1 6.13904 14.9655 1.92021
1485 1 1 4.72003 15.7655 2.72869
7123 1 1 5.10298 15.2023 1.87589
7579 1 1 7.19874 14.335 1.97524
690 1 1 8.27669 15.6027 1.2456
773 1 1 7.05922 15.5755 1.60251
31 1 1 10.2431 15.5153 1.75566
304 1 1 9.50854 14.2771 1.96148
1170 1 1 9.92642 15.4758 2.69223
7531 1 1 8.97812 15.282 3.0569
7508 1 1 11.6392 15.7238 3.27835
7829 1 1 11.9876 15.2019 2.18077
7834 1 1 13.2846 14.6818 2.29488
273 1 1 14.0082 15.1935 3.07406
1192 1 1 13.6424 16.1808 2.09379
7075 1 1 14.3201 15.4358 1.41083
990 1 1 15.2599 15.1007 2.00712
7551 1 1 15.8816 15.9841 2.00349
306 1 1 16.7449 14.6553 1.12395
1561 1 1 16.3886 14.8803 2.04392
1149 1 1 18.0025 16.2469 2.78449
394 1 1 0.889397 17.4801 3.58301
248 1 1 2.68702 17.025 2.78246
755 1 1 1.95158 16.9073 1.55944
7972 1 1 2.95317 17.1498 1.532
643 1 1 3.59189 16.5696 2.27464
7455 1 1 4.3829 17.3337 2.21304
1131 1 1 5.41966 17.3265 2.6417
292 1 1 6.78105 17.3061 2.65707
1172 1 1 6.00134 16.111 1.59748
16 1 1 7.77501 15.7999 2.56018
700 1 1 8.24683 16.6589 1.03584
346 1 1 9.85659 17.3561 1.82373
381 1 1 9.3984 16.2142 2.25117
1506 1 1 10.4539 16.3913 2.42929
1226 1 1 10.6422 16.6387 1.07266
658 1 1 12.3736 17.0752 1.81942
379 1 1 12.6051 15.4137 1.28092
2062 1 1 12.3795 16.0214 2.61861
1107 1 1 13.9398 17.2416 2.58596
7040 1 1 15.6383 17.2116 1.43163
1537 1 1 14.629 16.3152 2.44742
33 1 1 17.0038 16.2848 1.53259
1233 1 1 16.1106 16.8728 2.62749
7561 1 1 18.4961 16.9908 2.43055
1474 1 1 17.3896 16.9135 2.37376
1198 1 1 0.613667 18.3732 1.33473
412 1 1 0.215563 18.4403 2.70431
7197 1 1 1.63658 18.1449 2.83907
1481 1 1 1.84796 17.9464 1.75997
155 1 1 4.02875 17.9214 1.52998
325 1 1 3.58052 17.8956 2.65878
207 1 1 4.82878 18.4276 2.25084
7896 1 1 4.98538 0.733967 1.99406
889 1 1 6.00975 18.4065 2.32492
363 1 1 6.53707 17.7512 1.53258
27 1 1 8.78106 17.3164 1.70163
1174 1 1 7.58975 18.0051 2.29182
7913 1 1 11.0012 18.4863 1.8606
820 1 1 10.2456 17.7116 2.78049
7550 1 1 10.0366 18.304 1.86494
22 1 1 12.0155 18.6725 1.51462
982 1 1 10.8987 17.45 2.05827
391 1 1 11.9857 17.2183 2.79931
433 1 1 13.2338 18.0633 2.28657
1272 1 1 14.679 17.849 1.69567
754 1 1 15.6107 18.1539 2.27957
2033 1 1 16.9293 18.088 2.61301
40 1 1 18.3622 17.7264 3.21837
800 1 1 18.0991 18.8394 2.5641
888 1 1 0.872325 0.195764 3.16245
1200 1 1 0.647249 1.02255 4.31109
1106 1 1 1.6009 1.17101 3.91809
843 1 1 2.52515 0.466834 3.98582
7614 1 1 4.32091 18.5932 3.38229
1201 1 1 5.76765 1.42535 2.96846
777 1 1 4.97645 0.951779 5.00271
7678 1 1 6.27348 0.527256 3.19841
1141 1 1 6.98059 1.01417 4.20247
1584 1 1 5.83338 0.702427 4.45193
6 1 1 8.44959 18.6632 4.64892
855 1 1 8.70899 1.01053 3.4341
1548 1 1 10.3177 18.2315 4.40059
1250 1 1 10.7163 0.671145 2.85309
869 1 1 10.8756 1.34773 4.13558
139 1 1 13.3683 1.47295 3.58791
941 1 1 11.1566 0.131821 4.20749
20 1 1 12.7849 0.277151 3.70757
7155 1 1 14.6009 1.06416 2.76213
7478 1 1 15.6311 0.900759 2.84856
1187 1 1 15.1932 18.6321 3.13712
7887 1 1 16.9324 0.373669 4.16404
364 1 1 18.4905 0.468273 4.23836
2029 1 1 17.5697 18.5162 3.47798
884 1 1 0.228371 2.11066 2.99577
336 1 1 2.55064 1.71724 3.08773
47 1 1 1.97892 2.11082 4.04072
1129 1 1 2.60439 1.36394 4.48491
1638 1 1 3.4892 1.51001 3.69635
7298 1 1 5.04894 2.22865 3.46112
1340 1 1 3.77063 2.97791 3.02918
971 1 1 6.91239 2.26139 3.37137
93 1 1 5.99161 2.69253 3.15118
937 1 1 7.76062 2.60114 4.22331
1582 1 1 7.78825 1.65102 3.6406
7150 1 1 9.85135 2.05841 4.30749
863 1 1 8.65444 1.94127 4.24024
511 1 1 10.6907 2.13346 3.59559
26 1 1 13.7063 2.03737 4.47584
821 1 1 11.9737 3.03388 4.24371
7619 1 1 12.6274 2.4148 3.54792
818 1 1 11.7484 2.03824 3.8357
1540 1 1 14.0452 2.30183 3.54977
427 1 1 15.1077 1.76389 3.28495
1964 1 1 15.2473 2.59141 2.49169
752 1 1 16.0463 1.8577 2.45849
756 1 1 16.3089 2.40688 4.02571
115 1 1 18.0454 1.48301 3.99502
450 1 1 0.521198 2.90377 3.68984
1636 1 1 0.305868 3.90279 2.82905
603 1 1 2.44507 4.49883 4.01405
1738 1 1 2.5333 2.87521 3.37239
1216 1 1 4.56693 3.16314 4.54917
767 1 1 3.37357 4.65998 4.59161
885 1 1 5.07533 3.21567 3.47017
734 1 1 5.70299 4.18939 4.35927
1336 1 1 6.6435 4.39342 4.04218
977 1 1 6.32558 3.05082 4.16986
41 1 1 8.41123 2.96129 3.21075
1206 1 1 7.43111 3.2946 3.2281
611 1 1 8.40482 3.56109 4.03302
850 1 1 9.30593 3.18435 4.29599
1687 1 1 11.0456 3.49029 2.62424
876 1 1 9.87564 4.47499 4.28786
824 1 1 12.8737 4.30747 2.71721
588 1 1 11.6821 3.9902 3.12468
426 1 1 12.4993 4.11702 3.73218
1597 1 1 13.7769 4.92816 3.28247
543 1 1 13.4572 3.6537 3.48405
514 1 1 14.3434 3.10846 2.94567
495 1 1 14.8515 3.18272 3.84574
910 1 1 15.9305 3.63104 3.86585
119 1 1 15.1082 4.30042 3.67745
2159 1 1 16.3253 2.90459 2.7509
7228 1 1 18.212 2.55815 3.56894
1197 1 1 1.16426 4.2279 3.58274
1241 1 1 18.5699 5.64889 3.52546
848 1 1 1.23632 4.44202 2.50549
1334 1 1 1.53372 5.70961 5.12404
98 1 1 3.18899 3.81383 3.13745
1330 1 1 2.8915 5.51527 4.33779
2136 1 1 4.4401 4.9295 3.33522
965 1 1 5.71287 5.30446 4.11931
1729 1 1 4.52542 5.18457 4.51169
7219 1 1 6.8837 5.26909 4.51639
180 1 1 6.50923 5.31455 3.48471
1331 1 1 7.98484 5.58932 4.10467
1066 1 1 7.94616 4.48046 3.70188
2150 1 1 9.07135 4.6568 3.49449
909 1 1 10.907 4.6069 3.26268
1229 1 1 10.8736 5.15799 4.30124
173 1 1 10.573 6.01621 3.60407
32 1 1 12.4178 5.86513 2.97411
1413 1 1 11.5509 5.80102 3.78453
947 1 1 11.8451 4.8311 4.41247
470 1 1 13.2611 4.69719 4.3792
2232 1 1 13.5391 5.84526 3.76706
509 1 1 16.0536 5.31834 2.73477
1202 1 1 15.3343 5.08622 4.40997
2071 1 1 16.3291 4.32643 3.11233
1759 1 1 16.4325 5.48649 4.00837
1355 1 1 17.321 4.34728 3.94108
1275 1 1 16.2536 4.54556 4.4449
560 1 1 0.243079 3.94445 3.98272
568 1 1 0.756429 7.70555 2.9615
2357 1 1 1.48594 5.77177 4.13326
808 1 1 2.29541 6.40204 4.16016
489 1 1 1.49543 5.58711 3.11461
239 1 1 3.68971 5.76646 3.35761
936 1 1 2.96459 7.1297 4.88284
1299 1 1 4.75071 6.0971 3.69851
898 1 1 7.01697 6.20608 3.97727
1732 1 1 5.94451 6.25725 3.88083
932 1 1 7.28922 6.9177 3.13638
1333 1 1 7.78744 5.35479 2.69569
1381 1 1 8.05182 6.321 2.81584
2126 1 1 8.1835 6.50559 3.75515
2103 1 1 9.02655 6.06689 2.9488
1015 1 1 9.56196 6.38871 3.72255
7850 1 1 11.2424 6.79347 4.16889
862 1 1 12.5566 7.32962 3.23238
1354 1 1 12.5992 5.83419 4.45733
1463 1 1 12.8608 7.12301 4.1214
1438 1 1 14.1699 6.61189 2.96441
7714 1 1 14.3807 6.89228 3.96138
2269 1 1 15.1605 6.89877 3.24281
1648 1 1 15.0218 6.11924 3.97577
1793 1 1 15.9167 6.63251 3.93517
1443 1 1 17.6993 6.34169 3.51923
1488 1 1 18.5184 7.8413 3.50444
1677 1 1 17.9612 5.8617 4.47818
927 1 1 1.4597 7.92686 3.87531
449 1 1 2.81094 8.73144 3.64407
90 1 1 2.8324 7.34162 3.84067
966 1 1 4.68981 7.28674 3.96086
1051 1 1 5.65316 8.00443 3.82773
7843 1 1 6.56693 8.45351 4.96674
571 1 1 6.5184 7.49177 3.67111
1466 1 1 8.87007 7.33664 3.84808
951 1 1 7.78121 8.07207 3.50296
7827 1 1 9.94561 8.15913 3.62777
1378 1 1 8.71039 8.47672 3.88888
1019 1 1 10.3663 7.41408 4.12964
2094 1 1 11.2092 8.101 4.75255
1387 1 1 11.2408 7.52549 3.32523
1036 1 1 13.8442 8.75075 3.36045
1429 1 1 12.3668 8.43206 3.87899
1395 1 1 13.2151 8.42919 5.12981
2154 1 1 14.8816 8.86137 2.88655
1798 1 1 15.18 8.26333 3.78717
134 1 1 16.0194 7.57505 3.59135
996 1 1 17.6651 8.04991 4.46774
1350 1 1 17.6137 8.2774 2.67796
311 1 1 18.2887 9.10407 3.67003
6867 1 1 0.47753 8.37278 3.7567
1365 1 1 1.38405 10.2314 3.28511
1850 1 1 1.8728 9.0487 4.47009
315 1 1 3.93354 10.1454 3.56707
358 1 1 5.40727 9.45477 3.41916
586 1 1 5.70415 9.16666 4.46753
7823 1 1 3.89219 8.87374 3.88915
1421 1 1 6.20648 9.33123 2.89848
208 1 1 6.9832 9.66802 3.53289
988 1 1 8.19251 9.71344 3.22539
2065 1 1 9.18222 9.7927 3.98359
649 1 1 10.9033 8.81048 3.22663
1390 1 1 11.8198 9.19805 4.51563
606 1 1 13.0254 9.2139 4.00502
1718 1 1 13.4731 9.47197 2.23502
108 1 1 14.0218 9.72042 3.33875
1714 1 1 14.5834 9.06515 4.23446
2645 1 1 16.1977 9.43551 3.59752
1353 1 1 17.1053 8.39534 3.58596
1396 1 1 17.0441 9.83512 3.2037
1556 1 1 17.2106 9.44084 4.20285
1403 1 1 0.331785 9.88898 3.14169
1521 1 1 1.46824 10.4034 4.26267
1001 1 1 1.38286 12.2742 3.48688
365 1 1 0.374307 10.9428 3.50445
2084 1 1 2.28039 10.7505 3.56835
7482 1 1 3.43499 11.4711 3.24799
573 1 1 5.3 11.3258 3.55303
1050 1 1 7.36961 10.685 3.46907
255 1 1 8.04506 11.967 3.11452
694 1 1 10.2062 9.6637 3.20191
1695 1 1 9.28169 11.075 3.70797
1111 1 1 10.2001 11.2502 4.17697
211 1 1 10.8963 9.8577 4.1135
1039 1 1 12.3744 10.0134 3.18113
303 1 1 13.4201 11.1155 3.37127
136 1 1 11.5044 10.8213 4.50637
78 1 1 13.7453 12.2612 3.08596
955 1 1 12.8004 11.067 4.19175
7428 1 1 14.5918 10.5843 3.47302
914 1 1 15.461 10.5637 4.20503
642 1 1 16.7486 11.442 3.21673
757 1 1 17.4054 11.018 4.01996
1475 1 1 18.5269 11.8258 3.58712
1878 1 1 18.5 10.3658 3.96372
557 1 1 18.1367 10.2932 2.6184
125 1 1 1.91119 13.4189 3.94034
1163 1 1 2.2791 11.5997 2.892
288 1 1 2.8267 12.4128 3.26466
7888 1 1 3.42483 13.0936 3.65332
1287 1 1 3.93213 12.4275 4.45788
1411 1 1 5.57321 12.8584 3.90969
621 1 1 6.4569 13.0572 3.50489
574 1 1 8.72381 12.4382 4.28845
1983 1 1 9.15077 11.9031 3.13175
277 1 1 11.3152 12.4748 2.61325
622 1 1 10.7975 12.8779 4.21998
2112 1 1 11.8637 11.7569 3.75317
667 1 1 12.2 13.4171 3.24287
600 1 1 14.0934 13.2328 3.81505
991 1 1 13.1561 12.8511 3.88507
7907 1 1 14.1796 11.368 4.10453
6719 1 1 15.5057 13.0647 3.7218
240 1 1 15.9843 11.6133 3.8572
967 1 1 16.3949 12.5478 3.97222
968 1 1 15.9001 13.8139 2.90198
1159 1 1 0.0898957 12.7538 4.30272
251 1 1 -0.022471 12.8735 2.82886
1450 1 1 2.86165 13.6163 2.58554
688 1 1 1.97108 14.1854 3.1789
627 1 1 3.57773 14.201 1.96738
2343 1 1 6.5948 13.7242 4.65117
7784 1 1 7.87786 13.6319 4.01594
213 1 1 8.63688 14.0604 3.55841
1939 1 1 9.40069 13.3348 3.84342
2017 1 1 11.0514 14.0984 3.89256
628 1 1 13.3733 13.957 3.49601
1432 1 1 11.6458 14.4914 3.24046
747 1 1 14.7821 12.6097 4.42769
1825 1 1 14.582 13.3217 2.90324
1120 1 1 16.4461 14.5881 3.60705
1042 1 1 16.3827 13.6981 4.26074
597 1 1 17.2065 13.9126 3.45254
639 1 1 18.2982 14.615 3.81997
282 1 1 18.668 15.324 3.01593
1487 1 1 0.787338 14.2813 3.83822
1550 1 1 2.61287 14.7991 3.78267
2367 1 1 1.45669 15.0835 3.08853
7900 1 1 3.68734 14.2657 3.94601
350 1 1 3.50941 15.5447 3.83841
1217 1 1 5.89629 15.3693 3.16073
687 1 1 7.00845 15.0742 2.71544
7975 1 1 6.77735 16.0758 2.5045
1530 1 1 6.59123 15.7456 3.77139
1145 1 1 6.89674 14.4614 3.85229
7543 1 1 8.3141 15.4849 4.54307
253 1 1 8.068 15.043 3.6251
1527 1 1 7.35933 15.4781 5.16384
1579 1 1 9.34393 15.2375 4.08622
1139 1 1 9.79216 14.2107 3.38982
317 1 1 10.3794 15.7282 3.92447
1906 1 1 10.8224 14.9875 2.80106
254 1 1 11.6424 15.1047 4.49429
7838 1 1 12.8781 15.3274 3.06721
269 1 1 14.3291 14.1757 3.98786
663 1 1 16.0356 15.5557 3.10082
629 1 1 16.7164 16.3566 3.8576
2037 1 1 17.2139 14.9259 3.02852
1046 1 1 17.7199 15.6658 3.75932
724 1 1 0.879852 15.9752 3.52333
727 1 1 1.96233 16.793 3.52409
1156 1 1 1.44229 15.6905 4.49541
1449 1 1 2.27409 16.8694 4.60179
1211 1 1 3.11363 17.3689 3.7646
682 1 1 2.84191 15.9791 3.16944
1453 1 1 4.68079 15.6317 3.7562
693 1 1 3.8561 16.6857 3.54742
1134 1 1 7.24102 16.5236 3.69387
704 1 1 4.8271 16.6232 3.41932
7856 1 1 9.19246 17.5504 3.84848
7980 1 1 8.11951 16.12 3.61878
19 1 1 9.42402 16.3614 3.51235
1184 1 1 10.9977 16.4661 3.31744
1151 1 1 12.9071 16.118 3.79687
7872 1 1 14.6517 16.703 3.96248
790 1 1 13.7324 17.2248 3.8001
823 1 1 13.3508 16.2208 4.7609
798 1 1 12.9513 16.9585 3.17636