ITEM: TIMESTEP
1900
ITEM: NUMBER OF ATOMS
8000
ITEM: BOX BOUNDS pp pp pp
0.0000000000000000e+00 1.8820720577620570e+01
0.0000000000000000e+00 1.8820720577620570e+01
0.0000000000000000e+00 3.7641441155241139e+01
ITEM: ATOMS id mass type x y z
913 1 1 2.76846 3.80808 1.85969
397 1 1 2.32061 18.5726 36.8573
802 1 1 3.58095 2.65351 37.5884
7972 1 1 2.25832 2.37473 0.617049
405 1 1 3.87849 4.21482 35.9685
7614 1 1 6.78805 18.5604 1.83954
18 1 1 3.78169 1.95949 0.611736
89 1 1 4.95311 2.56852 36.7295
1226 1 1 7.48547 15.9565 2.56861
7287 1 1 11.3863 1.82915 1.06078
7861 1 1 11.1474 0.389028 36.6542
390 1 1 9.1845 1.83269 4.45472
1138 1 1 11.1284 1.52826 3.77511
787 1 1 13.8533 1.66741 0.109387
7938 1 1 12.7127 1.37202 1.60671
7341 1 1 15.7555 17.5873 0.312697
7188 1 1 16.7628 17.6874 0.786816
113 1 1 17.4635 15.0056 1.38182
1964 1 1 18.6356 0.951775 2.32991
7044 1 1 16.6175 18.5909 1.82134
1142 1 1 17.7474 18.5654 37.4996
412 1 1 2.23382 2.81443 1.55516
7265 1 1 0.773471 1.95044 1.45593
7633 1 1 0.413412 2.60753 36.1441
1160 1 1 3.20673 2.95122 1.10449
1237 1 1 1.37168 3.70295 36.9961
6767 1 1 3.18102 4.45061 3.31928
319 1 1 3.52866 1.51379 37.1709
7316 1 1 5.24199 4.24583 34.4445
527 1 1 6.03759 2.15767 0.562643
1295 1 1 9.53548 18.0286 35.7245
7303 1 1 8.34823 0.467377 36.3513
116 1 1 12.4311 1.7261 37.0666
385 1 1 9.2509 2.63784 3.51113
7989 1 1 9.75498 1.22443 3.05226
149 1 1 12.0221 3.38865 3.21792
39 1 1 14.2141 2.80974 0.420989
100 1 1 11.9964 0.706308 37.5913
7549 1 1 13.7843 1.63772 1.65489
746 1 1 15.0479 1.06562 37.2534
157 1 1 15.1576 1.55135 3.25324
7293 1 1 15.9305 0.404564 36.586
480 1 1 1.55582 1.73078 4.12606
835 1 1 2.86904 4.83051 1.15682
796 1 1 5.49237 5.4986 1.45905
2432 1 1 18.0288 6.31895 1.018
44 1 1 4.25093 3.54332 37.0926
445 1 1 2.63386 0.988316 0.783867
6648 1 1 6.60151 2.91664 37.3252
1373 1 1 6.86635 2.71261 1.65353
5739 1 1 5.05122 3.24915 1.58383
1739 1 1 5.81652 3.26983 36.7662
529 1 1 7.358 2.3743 0.521855
696 1 1 6.38812 3.22667 34.7227
171 1 1 7.97692 18.066 2.28851
7698 1 1 8.26537 0.529499 1.62157
633 1 1 9.21098 3.72995 0.609155
7821 1 1 11.7448 3.19944 1.48108
1309 1 1 14.8361 3.94062 1.47981
874 1 1 18.324 3.7741 2.70072
1668 1 1 16.6383 2.41285 36.0912
1634 1 1 17.0288 2.49207 0.543867
752 1 1 0.748385 4.62348 4.69021
431 1 1 17.2736 4.49659 37.0271
324 1 1 2.04067 5.24056 2.58248
7641 1 1 0.265262 6.81949 0.485525
6443 1 1 2.35706 6.53812 0.649679
7371 1 1 3.76174 5.43012 36.0869
440 1 1 4.75932 5.04894 37.5015
1339 1 1 7.42907 6.73176 2.21163
3 1 1 5.60931 4.38618 37.4696
6136 1 1 6.70821 8.17294 37.0833
7250 1 1 8.46928 2.87556 1.8333
15 1 1 6.882 7.82118 0.577686
623 1 1 7.86349 5.15843 0.995239
779 1 1 11.2315 3.25435 0.493675
7776 1 1 12.8841 3.55082 2.39745
6986 1 1 9.37381 5.76988 2.53095
7745 1 1 11.3356 4.92316 2.40045
7591 1 1 13.9578 3.72976 1.17831
515 1 1 13.3434 4.50154 2.10614
30 1 1 12.8364 7.92303 36.6365
7665 1 1 17.9091 2.67853 2.02056
1640 1 1 17.2509 0.820643 36.997
7721 1 1 16.5555 5.73086 36.5637
1636 1 1 0.557679 2.8812 1.87905
7754 1 1 0.922047 4.42322 2.56851
1751 1 1 18.5097 8.22183 36.4019
1806 1 1 17.1932 6.28847 34.3816
81 1 1 1.17763 5.4074 0.963667
1290 1 1 4.43384 6.29854 35.6626
10 1 1 3.64033 9.03401 1.05462
569 1 1 3.39044 6.53629 35.1576
60 1 1 5.69323 7.03385 0.735469
7002 1 1 8.74993 7.60707 0.207959
102 1 1 6.99497 7.80578 2.14841
537 1 1 10.9902 3.69958 2.39649
6659 1 1 9.2648 6.25791 1.5509
538 1 1 13.3189 7.72288 1.09778
7071 1 1 10.5657 6.24731 1.06831
505 1 1 14.2771 4.88068 2.26583
1441 1 1 14.9238 7.97059 0.0575733
554 1 1 17.0024 4.65237 2.44666
1473 1 1 15.7061 6.73043 2.00684
519 1 1 14.5838 7.1803 37.1935
626 1 1 17.4604 8.48039 36.4587
1314 1 1 2.28183 8.79387 2.83863
164 1 1 2.64743 7.91134 37.4304
158 1 1 1.65495 8.73045 0.678056
7648 1 1 2.42152 5.82859 1.39515
1041 1 1 2.68757 7.19999 36.1
930 1 1 7.89995 6.89274 37.4609
1026 1 1 6.98999 8.0759 32.9311
1337 1 1 4.66641 10.4725 1.49396
138 1 1 6.11713 9.01703 1.10488
177 1 1 7.79412 9.16528 3.08116
7743 1 1 8.96944 9.00682 2.34621
133 1 1 9.66855 9.38784 0.847188
107 1 1 11.1538 5.59192 0.089396
142 1 1 14.1905 6.78684 36.1492
144 1 1 14.2146 8.51677 0.506906
1359 1 1 11.5856 7.38333 0.241871
1038 1 1 14.2701 9.08116 35.0834
2153 1 1 13.6729 5.19328 1.4583
7444 1 1 14.7299 5.82397 0.678311
281 1 1 13.4684 7.49196 37.6765
193 1 1 16.4664 8.88486 37.0492
7800 1 1 17.5585 7.44081 36.6015
191 1 1 0.893999 9.6008 0.376651
202 1 1 2.23366 10.6585 1.22547
7718 1 1 2.89425 9.94625 37.1123
153 1 1 5.13727 8.34923 2.0167
222 1 1 3.83736 9.898 1.40686
7847 1 1 4.4998 8.97923 37.0275
564 1 1 5.61803 11.342 3.36946
647 1 1 4.8063 10.5216 3.54772
541 1 1 4.1117 8.91273 2.04994
95 1 1 8.10798 10.1643 1.76046
582 1 1 9.4524 7.97665 2.556
1020 1 1 11.3687 7.83835 1.81731
7788 1 1 10.0276 9.6811 2.79457
91 1 1 9.66913 7.37188 1.42274
333 1 1 12.3834 6.91072 36.6867
74 1 1 11.4878 8.95782 0.11543
7780 1 1 13.6917 8.26388 33.5518
6997 1 1 14.8264 8.57611 2.92926
1350 1 1 16.8658 9.5371 2.24087
238 1 1 16.8959 7.97127 1.47062
349 1 1 16.6055 8.42233 0.33901
6683 1 1 3.04979 11.0144 1.87904
6972 1 1 0.948806 11.1901 1.45416
1003 1 1 2.43179 9.70159 1.89417
300 1 1 1.90392 11.2539 2.32521
7812 1 1 2.77311 9.90528 0.80294
2373 1 1 4.55066 9.88283 0.385644
645 1 1 7.81099 9.43223 0.292035
7579 1 1 6.55821 10.794 3.72875
573 1 1 6.01401 9.65171 3.22285
357 1 1 6.28738 10.5607 2.80191
615 1 1 9.00166 8.17211 1.45932
7538 1 1 10.8785 11.334 0.529539
1790 1 1 11.8118 10.6421 1.72348
6316 1 1 14.7598 8.06837 1.3023
7468 1 1 10.5532 7.10989 0.579544
1430 1 1 12.2985 9.42536 35.6459
2234 1 1 13.8194 8.28208 36.9757
1036 1 1 14.405 9.18846 37.1012
235 1 1 15.7898 10.2156 3.36233
7440 1 1 15.8997 6.40151 37.4446
6599 1 1 15.4487 10.8636 1.53777
200 1 1 -0.047492 10.8055 1.91033
4 1 1 17.4968 10.21 0.989133
311 1 1 1.61517 14.8868 0.162307
146 1 1 15.639 10.0068 2.0864
962 1 1 1.61201 11.4608 37.6257
7479 1 1 1.35152 13.8163 0.559495
243 1 1 4.01591 13.4198 0.232681
7897 1 1 0.223979 10.744 0.872512
203 1 1 2.39226 11.8109 1.15035
7817 1 1 2.57316 14.4582 0.743737
290 1 1 5.41468 13.5068 3.96349
2177 1 1 6.11369 9.829 36.38
526 1 1 5.70657 13.4406 2.38035
7936 1 1 6.08378 12.4227 37.2802
7891 1 1 7.8181 10.2975 36.823
1509 1 1 6.28891 13.2703 36.5726
699 1 1 10.6611 12.0037 1.25942
2244 1 1 12.3911 10.2142 3.48716
7461 1 1 11.238 10.6563 36.7241
1100 1 1 11.7258 9.73326 2.91743
683 1 1 14.5859 10.1209 2.4407
1368 1 1 18.2052 11.5054 34.4744
7834 1 1 15.621 12.7079 2.06192
1108 1 1 17.7433 13.6117 1.05886
165 1 1 0.689655 12.0059 0.598709
7451 1 1 18.6015 13.7423 0.138311
7086 1 1 2.98648 15.3782 0.0936571
246 1 1 2.07884 12.8267 34.1841
7581 1 1 1.53987 13.5821 37.2379
7953 1 1 7.83606 11.8413 1.93317
1102 1 1 5.46718 12.761 36.3556
1010 1 1 5.75945 14.4795 3.16133
287 1 1 6.57082 14.0551 0.775273
1070 1 1 10.9132 13.0565 2.43701
7610 1 1 7.00469 15.8907 36.896
768 1 1 7.68306 15.3267 34.2178
1501 1 1 13.3083 14.6877 37.0227
1069 1 1 10.713 11.5583 2.31058
7464 1 1 12.4615 13.7507 0.103322
7516 1 1 13.4442 13.8943 0.637615
7452 1 1 13.4032 13.3659 1.77676
7189 1 1 18.036 12.7192 37.3657
6563 1 1 17.3701 12.0704 2.90549
1484 1 1 0.829934 14.6057 36.943
310 1 1 2.44341 18.4217 2.52154
609 1 1 0.509213 14.2057 1.18029
6379 1 1 3.01775 13.871 3.48629
7180 1 1 3.30746 15.3197 1.08297
627 1 1 4.80303 13.1357 2.91113
7535 1 1 6.03015 16.6273 0.0845062
7555 1 1 5.99112 15.0603 36.5929
229 1 1 8.54531 15.6311 0.912366
6411 1 1 5.59788 15.1199 1.38938
7613 1 1 9.05501 16.0369 4.2498
1908 1 1 8.93288 15.89 2.53898
725 1 1 7.80216 15.9169 0.0987183
7504 1 1 13.7485 16.2554 0.212286
259 1 1 13.5659 15.8054 1.77547
798 1 1 14.8348 14.9485 36.093
7872 1 1 14.7866 15.1143 5.23532
7443 1 1 15.3198 17.138 1.17933
1199 1 1 15.8225 15.3954 37.6208
7844 1 1 17.544 18.0284 1.53959
6634 1 1 16.9092 14.4046 37.2659
753 1 1 18.0779 15.7105 0.705717
1997 1 1 15.6871 15.6502 1.04123
105 1 1 3.49309 18.2905 0.357045
7561 1 1 2.17306 17.2528 36.9175
7957 1 1 1.10354 17.0524 36.9086
873 1 1 2.47388 14.3459 37.42
7964 1 1 3.66789 17.4616 1.16538
7119 1 1 3.84476 0.301024 1.55281
7701 1 1 6.36821 14.7736 2.27588
340 1 1 5.03773 16.0703 37.4742
1172 1 1 5.15363 14.7607 37.2592
7975 1 1 9.3849 17.4334 36.6253
738 1 1 7.68778 16.4925 0.840143
286 1 1 10.1703 14.0772 36.93
700 1 1 9.62679 0.940988 1.51644
1170 1 1 8.67111 15.0138 0.143876
7994 1 1 11.5024 18.4215 0.905277
1506 1 1 11.1902 12.1697 5.31794
7230 1 1 14.763 15.7061 37.1769
6750 1 1 14.59 16.3514 1.58183
837 1 1 15.2565 16.4722 0.33936
677 1 1 12.9645 15.3297 35.4626
6674 1 1 2.23799 17.7171 3.29552
1713 1 1 1.24022 18.2312 1.84778
547 1 1 4.37647 1.63663 1.42106
6753 1 1 4.39733 18.3651 35.0015
7562 1 1 5.05685 18.2594 4.3381
399 1 1 1.7978 1.23391 36.9491
889 1 1 3.48695 0.955463 36.2602
6673 1 1 7.64403 2.09707 3.16123
7585 1 1 6.43081 0.947336 1.88978
7620 1 1 13.2257 18.6656 0.838824
419 1 1 9.82653 17.0465 0.441369
7210 1 1 5.56914 17.9826 2.9489
11 1 1 12.7626 1.1298 0.499975
6832 1 1 14.1947 0.519563 3.02672
22 1 1 14.6262 18.758 0.105398
1146 1 1 17.5073 17.9407 35.7434
7547 1 1 17.0603 0.318504 1.08574
784 1 1 17.3298 15.9685 36.5348
73 1 1 0.812316 0.501673 37.5768
278 1 1 17.0025 16.2171 0.463805
8000 1 1 1.28658 16.8776 0.759489
1200 1 1 18.697 0.693375 4.05524
402 1 1 2.70654 0.750204 37.4024
1198 1 1 2.46473 0.684882 2.76889
43 1 1 6.41441 18.5436 2.70634
1168 1 1 7.26582 0.667897 2.58953
428 1 1 5.6971 18.6359 1.46423
7532 1 1 6.15524 0.810907 3.39321
496 1 1 7.66804 0.132063 3.41153
855 1 1 7.96573 0.0378542 37.1989
1582 1 1 8.70998 0.0583502 4.93505
504 1 1 7.69132 18.6111 4.45829
764 1 1 8.82853 2.16171 36.8492
814 1 1 10.0285 17.9401 2.69357
838 1 1 11.1788 0.0456114 3.29253
7779 1 1 13.0306 18.1555 4.30663
7155 1 1 14.2482 0.762417 4.10984
427 1 1 14.774 18.1722 2.66228
422 1 1 14.7954 0.728914 0.957353
7478 1 1 15.204 2.72443 3.88049
151 1 1 15.8619 1.77802 2.28709
430 1 1 1.37424 0.758459 1.89625
2134 1 1 0.74209 0.190779 0.873048
96 1 1 2.65429 1.63889 2.56327
843 1 1 0.993279 0.0815878 2.81361
1239 1 1 4.61319 2.79836 0.697563
38 1 1 6.75924 0.319796 4.24523
1461 1 1 7.34514 1.13033 3.51261
130 1 1 4.17377 1.63404 5.41613
765 1 1 8.70055 16.546 1.76657
7656 1 1 9.22379 0.109272 2.96216
421 1 1 10.5689 1.11113 2.01722
7619 1 1 8.57976 1.42175 3.08735
500 1 1 12.7192 3.30919 1.30337
1196 1 1 10.4763 2.25804 1.9888
1270 1 1 11.7716 2.06504 2.16807
1315 1 1 14.3715 2.49267 2.85485
7708 1 1 15.7848 0.584571 0.0895209
1143 1 1 13.7999 18.6162 1.83507
2029 1 1 0.144453 1.62745 3.81687
356 1 1 15.4261 2.41057 1.23383
2159 1 1 0.147575 16.6201 0.158271
7950 1 1 1.83781 1.66325 1.87462
155 1 1 1.61639 3.67397 2.15256
109 1 1 1.88792 2.88697 3.88798
7996 1 1 3.67309 3.93041 1.29648
7280 1 1 5.89658 3.37934 2.31492
239 1 1 7.0021 5.63872 2.76045
37 1 1 5.37384 1.74487 3.23197
376 1 1 6.26896 2.9149 4.56277
1206 1 1 7.41723 1.89359 4.27941
611 1 1 6.67806 2.03942 2.34111
1333 1 1 6.42057 1.01531 5.31158
1687 1 1 8.57329 3.28828 37.1762
946 1 1 9.80491 2.76774 4.51994
7997 1 1 8.58207 3.06988 4.38403
824 1 1 10.119 2.98034 0.791076
461 1 1 12.0999 6.33696 0.0645308
616 1 1 9.86988 3.46137 3.28665
7855 1 1 11.5173 1.12777 2.80338
543 1 1 14.2644 2.61236 1.761
1229 1 1 15.5341 3.9778 2.66279
508 1 1 17.8866 4.55192 1.80499
786 1 1 0.538405 2.5794 37.1643
552 1 1 17.4466 3.05216 2.78652
65 1 1 18.3167 4.8391 4.66391
420 1 1 0.364836 2.00921 0.463986
2197 1 1 16.1236 5.38376 0.194895
34 1 1 0.861646 3.28648 0.492494
7647 1 1 1.82061 4.14016 1.28084
450 1 1 3.17169 5.06612 4.32023
209 1 1 6.96575 4.46371 2.58716
1776 1 1 6.66863 5.68653 1.09225
926 1 1 5.62463 5.93219 0.196146
455 1 1 6.06758 3.68709 3.41494
566 1 1 7.13891 3.35196 2.6577
7762 1 1 9.13088 4.88088 2.91609
581 1 1 9.68792 3.76967 35.9405
180 1 1 12.4231 5.0181 2.82917
224 1 1 10.9126 2.6149 2.78928
1701 1 1 9.50632 5.01065 0.936337
909 1 1 11.1503 9.272 34.8413
32 1 1 12.4624 1.62651 3.34366
591 1 1 14.9927 5.61529 1.79996
156 1 1 11.1504 5.98184 2.08363
470 1 1 14.4236 5.69408 4.42356
908 1 1 14.6696 7.01072 0.56192
1238 1 1 12.4266 8.45972 0.204013
7756 1 1 15.6033 6.36874 0.867016
7601 1 1 1.07271 2.53125 2.99142
1717 1 1 18.6054 6.43199 2.36005
1318 1 1 17.4385 8.09821 0.0470203
2110 1 1 0.833818 7.06276 1.68024
478 1 1 2.69767 8.98048 0.98011
580 1 1 2.74103 6.35598 4.09601
848 1 1 1.9235 8.02188 3.39383
475 1 1 3.9931 5.44417 0.524853
7643 1 1 3.30743 7.54654 0.784746
1488 1 1 3.98859 5.20949 1.52214
1369 1 1 5.86986 6.56978 1.67005
488 1 1 6.79661 6.96116 1.28001
637 1 1 5.5314 8.76876 2.8659
454 1 1 6.29824 4.8747 1.7603
7748 1 1 6.38953 6.90833 2.61033
932 1 1 8.00251 7.91112 1.03871
497 1 1 8.14159 4.55771 37.2805
231 1 1 12.379 5.06307 1.29453
862 1 1 10.9855 3.63804 4.67922
978 1 1 16.7595 6.78652 1.50004
7827 1 1 13.4996 5.90218 2.53587
2160 1 1 16.8829 3.64598 1.39097
7603 1 1 17.4594 7.86985 3.71075
6875 1 1 17.2399 5.52949 1.94637
474 1 1 18.0283 6.18869 35.8481
362 1 1 1.85461 9.02181 5.1078
45 1 1 2.29638 7.0061 3.43813
98 1 1 1.49246 9.31536 1.86924
1766 1 1 2.98095 8.61333 1.85528
1366 1 1 5.418 9.60889 4.30385
6896 1 1 5.10445 8.95807 0.699848
1917 1 1 3.63977 8.7434 36.4385
1417 1 1 6.6063 11.0313 1.31203
53 1 1 7.98982 9.01547 1.71746
539 1 1 8.82945 7.92342 3.46864
7659 1 1 7.80256 7.63986 3.0611
1044 1 1 11.7874 6.91302 1.16475
570 1 1 7.54809 7.79022 36.5001
498 1 1 14.8866 7.50052 2.65935
1422 1 1 13.9442 7.95511 1.97819
1039 1 1 12.2558 5.85433 3.96624
188 1 1 14.9901 9.17619 0.497929
1000 1 1 15.4643 8.72847 37.1885
159 1 1 13.8564 7.01218 4.11694
1033 1 1 14.1482 9.5065 4.37505
7397 1 1 16.8058 6.73927 3.83677
1443 1 1 18.0019 5.50708 3.09052
1316 1 1 18.7137 5.14698 2.41822
162 1 1 17.052 8.76394 3.26607
959 1 1 18.4987 7.56545 3.60359
7525 1 1 0.165064 9.327 3.79806
206 1 1 1.02326 7.27575 2.82439
1852 1 1 1.26153 7.00227 3.9128
7841 1 1 3.18623 7.55679 1.85266
175 1 1 18.7807 8.34233 2.61999
201 1 1 3.58131 10.8108 3.61608
983 1 1 3.3996 7.95057 3.25811
1048 1 1 5.04835 9.49998 1.51082
571 1 1 5.08231 9.79775 2.48981
1089 1 1 6.40073 8.20543 4.27963
653 1 1 6.88172 10.0944 1.73978
7862 1 1 5.79344 10.0801 0.313697
1420 1 1 8.44915 9.77355 4.30161
973 1 1 10.0316 8.70085 1.5593
228 1 1 9.5995 6.84032 2.54666
575 1 1 10.5571 6.47607 4.52343
7904 1 1 10.7794 7.19785 2.65029
636 1 1 14.232 6.30356 1.76789
2154 1 1 15.8424 8.01894 2.11144
7758 1 1 17.6337 7.1213 1.44469
1718 1 1 16.2843 5.75765 1.55834
1396 1 1 17.633 6.65327 2.30452
84 1 1 16.5073 9.36373 4.84021
308 1 1 17.9923 8.6758 0.90238
1005 1 1 2.79958 10.3272 2.84394
195 1 1 1.32788 10.2327 2.14595
1282 1 1 0.293146 12.3066 1.65001
154 1 1 5.42505 11.3034 1.49187
685 1 1 6.91882 9.48699 4.02609
1820 1 1 4.77204 11.9678 3.59816
2215 1 1 6.54741 12.9744 1.97231
7334 1 1 8.75758 9.21655 1.21043
7822 1 1 10.0207 10.8614 1.8268
232 1 1 11.1875 10.4879 2.68493
1532 1 1 10.8141 8.97206 2.26674
1983 1 1 12.4501 6.86998 2.14155
602 1 1 13.9482 9.10569 2.90208
276 1 1 13.2378 10.0729 4.26524
1074 1 1 13.8934 10.1137 3.4414
7428 1 1 13.6742 7.76599 3.37514
240 1 1 14.6412 12.5995 1.46557
7480 1 1 16.9856 10.026 3.97288
877 1 1 18.2041 11.2448 2.70252
444 1 1 18.0709 9.12005 2.12465
237 1 1 17.2697 12.178 1.25357
669 1 1 16.4486 10.6275 1.89779
648 1 1 0.67144 10.6826 3.15876
1173 1 1 2.61319 16.0193 1.80703
1486 1 1 1.38024 12.2123 1.44989
342 1 1 5.69539 12.6222 3.12831
7536 1 1 6.88064 13.1674 37.6021
1135 1 1 8.40895 13.0874 0.175908
691 1 1 7.37519 11.2053 37.3764
225 1 1 10.8856 14.3316 0.194947
253 1 1 9.71448 12.1087 3.57454
1103 1 1 11.0717 12.1381 3.80909
574 1 1 11.8482 11.1099 0.197831
7893 1 1 14.161 14.6896 1.94804
1533 1 1 11.1056 13.2957 3.84658
610 1 1 13.552 9.89956 1.44985
1825 1 1 11.7731 11.3286 2.89296
1073 1 1 16.4684 11.787 0.973331
967 1 1 18.421 12.3029 2.47618
667 1 1 16.4448 12.9499 5.08818
597 1 1 17.1896 12.1791 0.153059
204 1 1 1.00894 15.0412 4.96129
7052 1 1 16.8071 13.1748 0.706182
1078 1 1 1.10054 14.3472 2.05038
1529 1 1 3.03398 11.4349 2.81869
125 1 1 3.60951 13.0535 2.44143
7888 1 1 0.178083 13.3082 1.34901
1136 1 1 5.31147 15.3071 3.47303
255 1 1 5.82748 15.0133 0.260316
704 1 1 3.93336 14.4897 0.723002
690 1 1 8.9046 14.9603 1.65287
1017 1 1 8.86223 9.82895 37.2141
16 1 1 6.49791 11.9282 0.570391
344 1 1 8.94588 13.3185 36.9849
304 1 1 8.49402 11.0196 1.63813
379 1 1 12.1018 12.6519 3.30162
1153 1 1 14.3205 13.7392 1.39547
878 1 1 13.1337 12.1781 2.70323
273 1 1 14.1554 13.4733 2.49639
1537 1 1 15.5425 11.0369 2.59425
990 1 1 16.5381 13.231 2.07176
1042 1 1 17.6651 12.9715 2.11778
7993 1 1 16.5644 16.2726 2.49236
85 1 1 1.22124 13.2695 1.42954
2367 1 1 1.59708 16.1097 2.43457
755 1 1 5.76386 16.2443 3.96356
693 1 1 0.328885 15.2134 2.10677
7123 1 1 4.87867 13.9967 1.88856
374 1 1 4.90417 16.318 2.40634
773 1 1 7.61817 13.1042 0.933916
2343 1 1 9.46145 15.5032 36.4715
687 1 1 11.433 15.907 2.07625
1573 1 1 10.7278 14.953 36.7846
2661 1 1 10.8419 16.6389 1.08405
7945 1 1 11.9945 13.4862 1.47581
31 1 1 13.1578 17.3882 2.82759
2062 1 1 10.3764 14.3182 3.18216
433 1 1 13.3922 16.1013 4.41671
1187 1 1 11.8483 13.7331 2.72555
7147 1 1 15.3941 16.0701 4.13047
790 1 1 13.8298 12.7677 0.543638
629 1 1 17.3635 14.1212 2.66949
7903 1 1 17.3805 16.6063 1.50606
1561 1 1 1.42889 16.0185 1.34998
2037 1 1 18.2968 15.8991 1.73864
439 1 1 4.15782 15.8606 0.416608
1446 1 1 2.91005 14.4522 2.04989
643 1 1 1.98712 14.8745 2.61497
7455 1 1 4.43682 16.1592 1.36225
1453 1 1 6.54699 16.4576 1.36433
370 1 1 4.62598 16.122 3.62714
1133 1 1 10.1387 16.816 2.05161
1485 1 1 6.35301 17.5691 1.32271
1131 1 1 7.33666 17.148 1.87191
1134 1 1 8.79233 18.4657 36.8827
7980 1 1 9.10053 17.7434 1.09626
7901 1 1 7.28571 13.4973 6.89344
416 1 1 10.176 16.3274 5.47367
740 1 1 9.53712 18.7823 1.92405
7838 1 1 14.0057 17.3022 1.52945
982 1 1 13.3392 15.3369 3.10768
64 1 1 11.3893 14.3343 3.76961
1107 1 1 12.2856 15.302 2.36442
7040 1 1 12.8016 0.0704368 1.94117
670 1 1 16.4751 15.9315 3.72343
1469 1 1 13.7013 15.1785 36.1691
282 1 1 0.478074 17.7059 5.14101
398 1 1 18.5858 1.00288 1.30119
899 1 1 2.59147 16.5633 2.64055
7926 1 1 5.19639 0.974283 1.32721
727 1 1 4.42153 18.4047 3.17635
293 1 1 5.20021 0.359434 2.71661
207 1 1 5.69245 17.0617 2.15049
363 1 1 4.8508 17.2648 3.97667
726 1 1 10.6263 18.6632 2.10087
292 1 1 8.24438 1.10312 37.3026
377 1 1 10.2448 17.7433 1.52852
781 1 1 11.8812 0.627237 1.14563
7550 1 1 11.8195 17.2438 3.10197
1250 1 1 14.2796 14.9865 4.1905
375 1 1 14.8233 16.8847 2.6671
391 1 1 10.4104 18.1372 0.47234
754 1 1 16.3054 17.2291 5.41341
7987 1 1 14.8262 18.5646 1.14968
1272 1 1 17.147 16.8136 3.9782
465 1 1 13.7614 17.9057 3.4504
1474 1 1 0.37618 17.9574 2.44392
1590 1 1 16.3958 0.0880828 3.38013
7560 1 1 18.5452 17.5635 0.381754
40 1 1 0.633737 17.9066 1.049
115 1 1 3.87983 18.6105 4.34468
7651 1 1 4.1496 3.65195 3.77659
816 1 1 2.12811 16.8075 4.09938
7848 1 1 3.25195 2.77712 4.47195
7678 1 1 4.5321 1.40322 4.16071
487 1 1 7.10112 0.578045 0.502885
937 1 1 5.89625 17.2801 4.03622
1584 1 1 7.23735 17.9563 0.918549
1094 1 1 8.81662 16.7126 3.09187
7 1 1 12.086 0.736566 3.76088
7984 1 1 10.1419 16.4072 4.47743
501 1 1 12.5438 0.358119 4.98806
7911 1 1 13.1538 0.856472 4.22112
7990 1 1 13.0718 17.1766 3.95501
139 1 1 17.519 3.4202 3.86628
382 1 1 16.1574 1.13853 3.5311
2033 1 1 18.7705 18.3199 5.79823
7887 1 1 15.3811 0.482767 3.44392
1110 1 1 18.5288 2.14904 1.26531
7992 1 1 18.6498 18.5088 3.34218
1481 1 1 18.1341 1.33222 3.25123
800 1 1 1.5183 1.14558 3.29603
917 1 1 3.89797 1.7762 6.86238
47 1 1 1.74239 4.46764 3.65932
728 1 1 2.54928 1.1956 4.22051
321 1 1 2.79153 3.64171 2.89262
841 1 1 6.69421 17.6235 3.26076
7253 1 1 5.82677 0.855984 6.35023
7896 1 1 4.3921 1.66557 2.71213
7616 1 1 8.9209 0.71816 3.77623
520 1 1 4.82216 3.89377 4.87997
7296 1 1 7.94898 2.44188 6.33276
41 1 1 11.2156 0.0872948 5.41838
863 1 1 9.51683 0.921837 4.71497
829 1 1 8.21116 1.60632 4.72567
553 1 1 11.8519 0.720002 5.75087
2232 1 1 12.7009 2.49961 4.10096
7856 1 1 7.94678 1.85913 2.01423
2038 1 1 14.6716 1.85441 4.28931
1223 1 1 13.8791 2.22701 3.98772
1540 1 1 16.2743 2.08793 3.61802
780 1 1 17.4853 2.06554 3.63243
1554 1 1 18.7999 2.21176 2.4996
7638 1 1 0.300459 3.69992 4.2249
7228 1 1 1.37049 5.84755 4.14962
1158 1 1 0.791386 5.31527 3.49158
7661 1 1 4.34703 2.97241 2.25589
7715 1 1 3.16577 4.95294 2.18713
1327 1 1 5.74236 2.02394 2.0656
7685 1 1 5.25471 1.50283 5.74012
1216 1 1 5.48741 2.63622 5.24489
2136 1 1 5.94834 2.6155 3.36032
886 1 1 7.17268 1.42054 0.911023
1336 1 1 7.32217 2.40976 5.22834
7700 1 1 6.93163 2.92258 3.67836
876 1 1 9.94705 2.4125 6.03793
588 1 1 8.71312 3.94148 4.83022
2150 1 1 9.61361 2.21487 2.67841
2103 1 1 10.0753 4.47665 2.19793
147 1 1 11.7911 2.10681 4.19418
1597 1 1 12.9381 7.15945 4.77038
2099 1 1 16.0275 3.16156 3.26109
1269 1 1 13.7574 3.20656 3.24657
1037 1 1 15.9956 3.18063 4.3959
514 1 1 13.1502 4.30221 5.53834
432 1 1 15.916 3.06556 2.08146
1231 1 1 17.8842 7.13444 4.59353
483 1 1 17.4871 4.78211 5.72276
364 1 1 18.2507 2.65694 6.96633
910 1 1 0.0986006 3.99259 6.06125
6804 1 1 17.4231 6.03944 6.02877
489 1 1 2.07523 7.55953 1.5181
35 1 1 2.12676 4.13043 0.196873
884 1 1 1.52505 6.18076 2.10094
7607 1 1 1.07061 3.18333 4.71389
1280 1 1 4.15684 4.59774 4.38075
528 1 1 5.11229 4.3728 3.37296
767 1 1 3.30031 2.70212 2.39731
1381 1 1 6.96274 4.44723 3.69976
1296 1 1 8.80052 6.12492 3.47139
587 1 1 8.34703 5.93228 1.95782
1331 1 1 7.15307 3.58722 4.64715
2126 1 1 12.1613 6.72757 5.75171
576 1 1 9.90644 3.85441 4.6385
217 1 1 8.21859 3.5372 0.672356
387 1 1 14.3374 5.30278 3.265
1265 1 1 15.3903 5.33252 3.07415
1377 1 1 14.8873 6.31726 2.81951
1670 1 1 16.662 5.68764 4.12639
954 1 1 16.3567 5.16072 3.05662
1202 1 1 16.3124 4.92541 5.13508
68 1 1 15.8885 4.97738 2.20258
525 1 1 17.2284 4.72122 3.94925
481 1 1 16.5561 6.90213 4.86983
112 1 1 16.803 5.88795 5.13835
1194 1 1 1.13101 3.73196 3.36839
1241 1 1 0.925637 7.95314 5.13099
7931 1 1 18.3305 6.2171 5.53619
2357 1 1 2.66257 6.05362 2.95095
966 1 1 4.26444 6.38257 0.942514
7823 1 1 4.62015 6.22022 1.9337
1885 1 1 5.26948 4.85798 2.30901
1051 1 1 6.10166 5.86274 2.22165
1098 1 1 6.12466 5.85273 5.52853
555 1 1 11.2185 5.56533 5.17233
446 1 1 11.8994 4.34199 3.79812
1378 1 1 10.0259 5.65906 3.56987
1222 1 1 11.8372 7.32946 4.75389
7432 1 1 15.8371 7.05737 3.09641
948 1 1 13.3416 1.51444 2.51082
606 1 1 14.0236 6.58568 5.66248
1360 1 1 0.144583 8.33935 1.46531
1648 1 1 18.5569 8.12249 4.40878
1968 1 1 16.7202 7.76857 7.50004
1355 1 1 1.73183 7.02727 4.82213
522 1 1 1.93748 8.01412 4.49045
441 1 1 2.70485 9.33861 3.6499
2071 1 1 1.99817 5.99673 5.59395
560 1 1 18.5753 7.21435 1.26449
1409 1 1 3.41747 6.80779 2.991
568 1 1 6.83014 8.5412 3.11562
90 1 1 3.66013 7.08025 5.03807
1262 1 1 4.52211 8.36653 3.65914
1376 1 1 6.1326 6.97463 3.878
7843 1 1 5.622 7.26517 4.79361
1344 1 1 9.72038 6.70337 3.94117
988 1 1 8.31893 5.26388 5.51186
865 1 1 6.80744 6.3006 37.4674
140 1 1 12.4199 4.58102 4.76392
173 1 1 8.8412 4.07042 2.05116
462 1 1 10.1493 8.28829 3.38479
649 1 1 11.4777 5.43408 6.52694
160 1 1 16.3722 7.9552 3.13013
556 1 1 15.4011 8.72088 4.10359
7804 1 1 15.3897 7.72617 5.96994
996 1 1 0.745866 8.01043 3.70726
557 1 1 17.3769 8.03177 2.54529
393 1 1 0.47078 11.1905 4.8929
7928 1 1 2.86149 8.45302 5.02584
7322 1 1 4.59188 9.4686 3.35234
1365 1 1 3.59402 9.05522 4.37874
1287 1 1 4.6548 6.89045 3.52507
7806 1 1 7.63187 7.79709 4.07874
315 1 1 6.53083 11.9417 4.0117
358 1 1 5.69498 8.73702 3.94792
1482 1 1 7.47288 10.3362 4.00958
1724 1 1 8.32382 7.58047 5.08889
2338 1 1 9.96098 9.68897 5.77903
618 1 1 10.5776 10.143 4.21844
7377 1 1 8.6006 10.6989 6.45037
1105 1 1 13.878 9.7195 6.18208
593 1 1 9.80228 7.78982 4.5109
1826 1 1 11.6566 9.49672 1.82829
211 1 1 10.999 7.80385 4.13271
1072 1 1 12.9879 9.59845 2.2502
1478 1 1 12.437 7.59018 2.99703
7395 1 1 15.7717 7.91868 5.05992
108 1 1 12.4914 9.04522 3.3219
1637 1 1 18.1957 7.67842 2.03367
7880 1 1 18.4529 9.26533 4.67517
1439 1 1 18.1949 8.76093 3.56646
997 1 1 0.562939 9.38618 1.61772
327 1 1 0.53535 11.3426 37.4816
7791 1 1 4.16825 10.792 4.85687
925 1 1 5.49781 8.45211 4.87013
7482 1 1 3.64998 9.77248 3.2317
2122 1 1 5.3378 12.5905 4.47532
1008 1 1 6.3948 12.9339 4.99858
586 1 1 7.09671 9.78732 2.66645
1049 1 1 8.84822 11.2008 2.84006
2305 1 1 8.912 11.7493 4.78643
536 1 1 11.6126 8.69741 4.10365
492 1 1 9.35759 10.4225 3.69824
1984 1 1 6.98101 11.9768 36.3002
213 1 1 10.7734 8.84582 5.90139
1939 1 1 11.7924 8.59027 5.66649
638 1 1 13.9469 9.01538 1.75031
1822 1 1 12.0398 11.478 5.41253
955 1 1 11.4411 10.0398 4.71087
600 1 1 13.0714 11.8616 3.91434
1113 1 1 17.576 8.63074 4.44203
1631 1 1 16.2084 9.25789 3.37717
642 1 1 18.7966 9.76736 5.74486
757 1 1 0.355387 9.81988 2.50749
2320 1 1 17.211 8.46689 5.34687
6569 1 1 18.4916 9.54458 6.79842
1128 1 1 1.98055 11.6973 6.26482
1427 1 1 1.59895 10.4279 3.93087
1878 1 1 0.522981 11.6061 2.31629
1411 1 1 4.09672 14.5301 2.79877
1450 1 1 4.61969 11.2337 2.77856
1093 1 1 4.02002 11.8149 4.63343
216 1 1 4.42767 14.3471 5.81516
1357 1 1 7.57138 12.1112 5.71097
1476 1 1 8.96123 13.7588 4.4516
1112 1 1 7.78578 11.4382 3.01313
277 1 1 10.1506 12.9339 1.49373
424 1 1 9.3282 10.3128 0.88683
7829 1 1 9.67496 13.0755 4.50577
1507 1 1 16.4487 11.2663 4.81733
271 1 1 15.0163 9.52657 3.44013
7811 1 1 13.1706 12.3838 1.26597
991 1 1 12.7956 14.4987 4.04469
1942 1 1 15.8239 11.3108 3.70743
639 1 1 18.3484 9.89125 3.13839
1046 1 1 15.3996 12.3301 4.51774
712 1 1 18.5447 12.0281 4.80157
251 1 1 18.3646 12.7238 5.69753
1077 1 1 0.186355 13.751 3.45731
1596 1 1 0.216872 10.5918 4.04466
7403 1 1 0.998239 12.5952 2.67074
7921 1 1 1.34039 11.4452 3.41192
7835 1 1 1.53729 12.9298 3.52155
350 1 1 3.43172 15.5483 2.39527
1082 1 1 3.91605 14.5597 4.23933
7503 1 1 5.19867 15.2202 2.35095
1504 1 1 4.91432 14.4623 3.99416
7487 1 1 6.98554 14.2134 2.78928
7784 1 1 5.38369 13.433 5.25916
584 1 1 7.75302 14.3689 0.288295
1175 1 1 8.01039 13.5617 4.02524
227 1 1 9.17366 13.774 0.710327
1906 1 1 9.73148 12.0039 0.255382
1657 1 1 6.97258 12.1809 2.95934
628 1 1 14.9277 10.7222 3.33208
678 1 1 12.8423 13.3185 2.79184
6719 1 1 16.6405 11.7877 2.06096
1120 1 1 17.2062 15.034 3.69879
7515 1 1 18.1051 14.0715 1.93618
1389 1 1 0.411348 13.2759 2.35001
7870 1 1 0.752868 15.2973 3.94581
688 1 1 1.03868 14.1581 3.6832
724 1 1 1.47213 16.0099 3.72419
7602 1 1 4.30815 17.7013 6.107
1145 1 1 2.2116 13.1735 5.79857
1550 1 1 3.16646 16.176 6.27456
1217 1 1 6.94135 14.795 4.74376
1301 1 1 5.20658 14.5019 5.19363
7531 1 1 9.0242 12.7955 1.05374
2017 1 1 10.2603 12.9344 3.40854
1139 1 1 11.2579 14.9823 2.35339
736 1 1 12.1058 12.0193 6.43014
381 1 1 9.91702 12.2277 2.2759
19 1 1 11.7006 16.5989 5.84993
1184 1 1 12.5869 12.957 5.51947
1432 1 1 12.3369 14.2158 4.8794
317 1 1 12.5361 15.9963 2.96693
1151 1 1 15.2995 12.9918 3.038
320 1 1 15.4544 13.5012 5.81337
7923 1 1 15.2877 13.9426 4.32344
234 1 1 16.5107 15.1078 2.78228
2351 1 1 15.5414 15.7835 5.73771
663 1 1 17.5635 15.5187 2.70462
1445 1 1 17.2673 13.799 4.13026
1567 1 1 17.3933 14.4138 4.89238
7968 1 1 0.581815 16.144 2.66486
812 1 1 0.983502 18.4678 4.38842
888 1 1 3.64206 17.6665 2.19462
1156 1 1 5.06529 15.6264 4.52289
331 1 1 4.44485 15.0289 1.56689
336 1 1 4.76101 16.4456 5.13379
2837 1 1 2.89479 15.3478 3.93607
1211 1 1 5.94243 15.6739 2.73346
1179 1 1 4.47053 17.5933 4.97718
423 1 1 9.78126 16.3334 3.39252
1530 1 1 6.37065 14.0408 5.16023
27 1 1 9.35326 16.807 7.56131
411 1 1 10.2878 15.5627 2.65964
1541 1 1 11.7939 18.5789 4.40119
7508 1 1 12.6692 18.2524 2.60328
766 1 1 10.9922 15.4735 7.35998
316 1 1 11.1453 16.7708 6.98655
6720 1 1 13.0494 14.2416 1.59944
1147 1 1 11.2863 16.8532 4.18666
7551 1 1 14.9477 17.6341 3.89033
328 1 1 15.6264 18.2985 2.05185
443 1 1 16.4261 17.3461 1.97475
1149 1 1 17.745 16.0142 3.61486
692 1 1 18.5138 18.6596 1.16666
1958 1 1 18.7851 16.4023 4.29745
1166 1 1 0.66185 18.6282 7.37205
686 1 1 3.99985 0.494877 2.75015
847 1 1 0.490591 0.0281152 1.85785
2492 1 1 3.88208 0.880132 0.657567
248 1 1 4.89289 0.457567 3.7985
325 1 1 4.63268 17.3159 2.93712
1122 1 1 4.87811 0.718196 5.23715
605 1 1 7.74629 0.742741 4.4177
777 1 1 5.5033 15.7623 6.63414
813 1 1 7.4446 14.5248 3.74714
1174 1 1 8.53226 15.0818 4.47866
1385 1 1 8.21898 16.465 4.96434
820 1 1 10.9904 17.4218 2.35829
6 1 1 7.06451 15.3117 3.24699
7150 1 1 10.2246 18.536 3.82093
869 1 1 14.1596 18.5419 4.29026
460 1 1 12.6411 16.8076 4.9475
20 1 1 15.8239 17.5752 3.13416
33 1 1 17.4932 18.4515 2.97501
437 1 1 16.0167 0.614172 1.085
409 1 1 15.4893 0.507278 5.01654
834 1 1 2.82994 18.7451 1.45795
867 1 1 18.5334 1.08245 5.64406
807 1 1 0.664602 1.68546 8.65627
794 1 1 1.46352 0.403608 5.30288
1526 1 1 1.71122 0.634729 4.2885
1171 1 1 1.83478 2.56557 5.06595
819 1 1 1.77929 17.6237 6.65916
763 1 1 2.09035 1.27178 5.47722
778 1 1 3.08748 0.202447 4.92833
971 1 1 5.76167 0.307778 4.95149
1729 1 1 5.67448 16.7459 3.14277
1248 1 1 5.35197 18.1777 5.30354
734 1 1 6.74825 16.6667 3.33424
1180 1 1 7.67908 18.4892 6.36699
1973 1 1 10.9859 0.514221 4.28152
353 1 1 11.3747 0.106754 6.64837
1308 1 1 8.16023 3.21642 5.48266
511 1 1 10.7064 2.62475 5.07818
2867 1 1 11.9227 1.64157 5.08021
818 1 1 11.9916 17.63 4.90965
1706 1 1 10.6992 17.6809 4.56557
1213 1 1 14.3245 3.50979 2.47606
1514 1 1 0.245681 2.60253 4.08351
1672 1 1 15.5658 3.41235 5.28071
2347 1 1 17.113 0.895916 4.17969
1549 1 1 16.2391 18.2936 4.88645
1543 1 1 17.2215 2.33717 6.90591
7914 1 1 17.0625 1.52054 2.69955
1240 1 1 17.3079 0.831393 5.96114
1205 1 1 17.461 1.97356 5.91377
491 1 1 2.54713 3.89715 4.13864
1129 1 1 1.93391 3.47806 5.6604
1608 1 1 2.28028 2.90206 7.30441
1932 1 1 5.78787 1.44367 4.41618
93 1 1 10.3682 0.779336 5.49189
858 1 1 4.39949 18.5051 6.75351
503 1 1 6.79143 2.21158 5.98791
977 1 1 7.74593 3.74299 6.28983
2814 1 1 10.0172 18.0946 5.5964
857 1 1 8.99256 2.24787 6.47495
14 1 1 9.57651 1.23757 6.9984
1181 1 1 7.86115 3.40217 7.5356
850 1 1 12.0657 3.25257 4.67105
1345 1 1 13.4091 1.28543 5.24623
2026 1 1 10.5596 17.493 3.51501
2020 1 1 15.5062 0.970828 1.88059
1472 1 1 14.0956 3.13593 4.54847