ITEM: TIMESTEP
4300
ITEM: NUMBER OF ATOMS
8000
ITEM: BOX BOUNDS pp pp pp
0.0000000000000000e+00 1.8820720577620570e+01
0.0000000000000000e+00 1.8820720577620570e+01
0.0000000000000000e+00 3.7641441155241139e+01
ITEM: ATOMS id mass type x y z
7265 1 1 1.14714 0.423836 1.27738
2134 1 1 2.1281 18.3543 0.427326
7560 1 1 0.52139 2.19937 37.5769
6076 1 1 6.57528 0.991281 0.0723715
2026 1 1 4.36769 1.3108 0.646555
605 1 1 7.36433 18.5787 0.926849
6017 1 1 8.49511 18.711 1.4268
6703 1 1 10.0425 1.1215 0.627657
6509 1 1 9.70786 0.14208 0.5102
7821 1 1 13.1843 18.5916 36.8842
382 1 1 13.6296 1.36582 0.875152
7938 1 1 14.1426 1.6452 2.08786
742 1 1 13.168 2.27432 2.9263
1269 1 1 15.1127 0.961723 2.0684
7293 1 1 17.7716 0.920713 0.552621
7690 1 1 1.63514 1.6875 1.68901
7261 1 1 2.40928 1.26392 0.965848
7604 1 1 1.09683 1.08459 0.14665
6995 1 1 1.92727 3.0088 1.42992
402 1 1 4.23738 3.16428 0.699676
816 1 1 3.01469 1.23999 37.558
6459 1 1 3.67988 2.10493 0.301562
7585 1 1 3.30969 0.853505 1.37767
3 1 1 5.78987 2.3782 1.56444
497 1 1 6.2837 1.60731 2.51846
1168 1 1 5.24009 1.63636 1.24408
7725 1 1 8.60632 3.05408 0.0471015
89 1 1 8.8628 1.78918 0.396488
7994 1 1 10.7067 1.43826 37.2964
1333 1 1 12.494 2.16726 0.455255
1037 1 1 14.0428 2.56031 0.00268384
7471 1 1 14.6707 1.28158 1.10476
1540 1 1 17.2703 2.57822 37.3943
1713 1 1 0.518471 2.69023 0.959171
6152 1 1 1.75011 4.27116 1.7891
1239 1 1 1.0117 3.45795 1.73905
7091 1 1 3.2412 3.13939 37.6348
7456 1 1 3.25044 3.5533 1.43759
802 1 1 3.23864 5.04369 1.97318
7653 1 1 5.16304 3.1178 2.0756
7300 1 1 6.70307 3.87307 2.77659
7667 1 1 5.67273 3.55039 0.957124
7919 1 1 9.60722 1.33188 37.0265
633 1 1 8.14322 3.80382 0.679213
529 1 1 10.2952 2.25154 0.901035
7010 1 1 11.4828 1.71301 2.42696
1380 1 1 13.4745 4.46495 1.48451
446 1 1 12.3835 1.79334 1.40053
434 1 1 13.8023 3.58072 37.1077
7432 1 1 16.4367 5.08369 1.38356
7636 1 1 14.7298 3.93468 0.0325863
2160 1 1 16.0043 3.98376 2.03956
5397 1 1 17.4525 5.28646 36.3123
6199 1 1 15.9597 3.39974 0.598109
68 1 1 0.498676 3.92165 0.434875
924 1 1 1.16986 6.11345 0.584507
1237 1 1 1.31425 4.12623 2.75219
7366 1 1 2.20093 5.36715 2.64762
72 1 1 0.27761 5.00254 37.5432
489 1 1 2.58891 4.72354 0.46884
1885 1 1 3.82491 5.33826 36.4193
568 1 1 5.74589 5.34091 37.2929
323 1 1 7.55404 4.46175 1.32783
796 1 1 6.52269 5.28398 0.367987
1369 1 1 10.9204 6.46309 1.78443
1045 1 1 8.23226 6.46435 0.570847
6691 1 1 10.3917 4.67445 0.160302
2232 1 1 12.9972 5.90076 0.960322
502 1 1 13.4917 4.55236 36.9013
7866 1 1 10.4476 6.4446 0.140977
1329 1 1 14.042 5.56299 0.671081
1109 1 1 13.7011 4.27685 0.277733
7796 1 1 13.831 5.73508 37.2548
6828 1 1 14.8198 5.47747 36.9747
7972 1 1 17.2496 7.40185 36.972
75 1 1 17.6531 5.40917 2.04078
2357 1 1 16.8839 3.83102 0.489215
6561 1 1 18.0341 6.02463 1.14723
7944 1 1 3.41428 6.45947 2.78126
15 1 1 5.5057 5.40305 0.83879
7322 1 1 5.88808 7.16014 1.13529
7699 1 1 5.1043 6.25812 1.28964
7663 1 1 8.36705 6.03414 1.67209
5747 1 1 7.67045 4.91014 37.1409
7924 1 1 7.95609 7.47063 3.28369
6538 1 1 9.68668 7.6763 0.240393
5690 1 1 10.0263 8.68398 1.20451
378 1 1 10.6648 7.49797 1.32939
7427 1 1 12.3686 5.29905 37.503
7937 1 1 14.6485 6.32369 37.6118
5812 1 1 12.2673 7.09228 37.554
7641 1 1 15.0731 6.73995 2.15952
107 1 1 14.5195 7.55332 37.4399
657 1 1 16.2451 7.64256 0.859673
7351 1 1 0.370007 7.78636 1.47254
7544 1 1 15.9691 6.65247 1.47002
7841 1 1 1.75886 6.25929 1.96332
1314 1 1 1.31567 9.06736 2.76034
6874 1 1 4.33688 7.9263 0.7655
626 1 1 0.950098 9.67642 0.552469
997 1 1 2.90268 8.41992 0.47685
175 1 1 2.58236 6.91254 2.03617
6987 1 1 3.8643 8.74525 1.33003
7803 1 1 6.75386 6.46251 0.515874
1850 1 1 5.73704 7.55642 37.2464
7643 1 1 8.92661 8.4273 36.8268
6477 1 1 7.47582 7.29886 37.5806
7748 1 1 8.40386 7.33865 1.40618
6136 1 1 9.13479 7.42055 36.6598
7301 1 1 13.792 6.51163 1.52914
181 1 1 13.3234 7.39696 0.61831
461 1 1 13.0381 8.94533 1.00718
7983 1 1 13.184 9.96673 1.43611
230 1 1 16.1713 8.76295 0.188215
186 1 1 18.4937 7.70508 0.501113
444 1 1 0.697417 6.85332 0.950541
550 1 1 16.3569 8.48638 36.2114
7795 1 1 1.76013 7.33491 1.60245
7451 1 1 0.0239506 9.87865 0.956941
2320 1 1 0.121956 8.76453 0.521227
222 1 1 4.1858 9.01156 0.327844
138 1 1 4.58036 10.9291 0.324041
331 1 1 6.26293 8.20883 0.353516
530 1 1 7.29805 9.47146 37.158
1450 1 1 7.3962 9.01473 35.9541
7335 1 1 9.18386 9.15447 1.3172
53 1 1 8.234 10.6546 1.00729
7891 1 1 8.7926 9.91003 0.239382
6669 1 1 11.5601 8.81863 0.420338
1790 1 1 9.72475 8.70981 0.0159142
7826 1 1 13.7269 10.8614 0.133553
7932 1 1 12.6836 9.05042 0.0877696
6997 1 1 15.2013 9.63812 1.48674
1359 1 1 14.3013 8.16424 0.882781
6705 1 1 15.0488 9.20281 0.516629
84 1 1 0.195686 10.95 0.39216
200 1 1 1.82964 11.075 0.402586
7011 1 1 3.41297 9.52739 1.04549
7897 1 1 3.54859 10.2197 0.364644
453 1 1 6.78514 11.3359 0.983218
1512 1 1 6.61419 10.9089 37.3758
1217 1 1 7.17702 9.78664 1.44355
1906 1 1 12.041 10.621 1.89829
6896 1 1 9.37172 10.3393 1.27036
7457 1 1 11.1062 10.9156 0.568994
6699 1 1 13.3407 11.0278 2.27636
1193 1 1 14.3597 10.1535 0.241586
7512 1 1 15.6949 10.726 1.58298
7022 1 1 17.3842 10.4021 0.327307
769 1 1 17.126 10.7494 1.14593
7397 1 1 15.6743 10.2774 0.707836
1120 1 1 17.1889 12.0322 37.3614
1036 1 1 17.741 9.09657 0.515745
7189 1 1 18.0105 11.7505 36.5423
7927 1 1 0.869601 12.4342 1.91223
215 1 1 4.63989 11.7452 37.277
6578 1 1 3.53087 11.6705 0.196278
1211 1 1 5.28005 11.9602 1.34607
2373 1 1 6.39104 13.0633 1.73191
691 1 1 7.5201 10.7506 1.88082
7004 1 1 8.50441 12.4845 1.66149
255 1 1 7.26626 12.8094 0.920707
993 1 1 8.26729 12.108 0.590317
765 1 1 7.4222 10.6629 0.39799
99 1 1 9.40913 11.4783 36.2853
1017 1 1 10.4016 11.8261 2.48438
6864 1 1 10.4147 11.8382 0.0646309
296 1 1 13.0604 11.8423 0.113355
7452 1 1 14.0678 11.9715 0.416576
7075 1 1 13.7814 12.9824 0.908649
2017 1 1 13.8326 11.7437 1.46777
57 1 1 14.8832 12.6377 1.01059
973 1 1 16.0272 11.814 1.55908
7772 1 1 17.8615 13.0742 1.63453
693 1 1 15.9588 12.1703 37.5192
1116 1 1 0.433322 13.6658 2.1887
1282 1 1 1.1772 13.0422 0.66349
559 1 1 0.636296 12.196 0.889073
203 1 1 4.15007 14.8017 0.945128
7139 1 1 4.78404 15.1765 1.77801
813 1 1 6.38903 14.6859 1.30402
863 1 1 5.85628 12.983 2.79975
17 1 1 5.38873 12.723 37.4434
8 1 1 6.82362 14.5079 37.4332
7610 1 1 7.69537 14.1063 36.8375
6590 1 1 9.37879 12.8099 2.18013
738 1 1 10.207 13.3608 0.925217
1081 1 1 8.69559 13.4746 36.9291
7489 1 1 11.7574 13.7441 4.16034
6634 1 1 12.0107 10.5376 36.8031
7704 1 1 12.4982 13.5002 0.565533
7635 1 1 15.1836 13.4191 2.01491
7853 1 1 15.471 14.2559 1.42655
6788 1 1 16.7764 12.8373 0.746484
7888 1 1 0.136066 14.6953 0.378509
113 1 1 0.273257 13.5985 36.8474
1928 1 1 18.5229 14.0417 1.24188
5597 1 1 0.933761 15.5046 0.0189712
1529 1 1 0.979028 14.6539 2.26078
311 1 1 1.5741 15.8908 1.01894
6321 1 1 2.04798 14.5275 0.953634
1082 1 1 3.05518 15.2287 1.1303
6379 1 1 5.98355 15.7042 1.42436
1729 1 1 5.35569 14.9461 0.596951
734 1 1 5.46631 14.2216 2.57976
67 1 1 7.73825 13.332 1.85716
7206 1 1 7.05171 17.4681 0.0390324
660 1 1 10.8853 13.6617 37.3038
586 1 1 9.2849 14.171 37.2263
377 1 1 11.7035 15.6762 0.0653117
1143 1 1 12.3845 16.2342 0.941774
740 1 1 12.9338 14.4321 0.480823
7834 1 1 13.7332 15.2127 0.230455
6399 1 1 15.4842 13.1417 35.4521
6723 1 1 15.7181 16.6374 0.35832
237 1 1 14.8639 14.5079 0.412019
465 1 1 16.4578 15.0327 37.0811
129 1 1 17.1563 15.4725 1.54251
7483 1 1 16.8128 13.8687 0.510796
1192 1 1 1.00941 16.6151 37.3794
7525 1 1 0.802517 16.7672 1.29757
192 1 1 18.8222 17.6216 37.1531
795 1 1 2.55129 15.9596 0.35585
1446 1 1 4.62233 17.7542 0.425842
7543 1 1 6.95391 15.3117 2.17493
7767 1 1 4.53207 16.5432 0.194332
749 1 1 8.14573 14.5634 0.270846
7678 1 1 7.08762 17.0699 1.38965
419 1 1 7.3786 15.9314 1.22152
1064 1 1 9.18988 16.7575 36.0894
38 1 1 9.30347 16.203 0.602665
7779 1 1 11.9681 17.3628 0.720123
7508 1 1 11.2922 17.2251 37.2736
6636 1 1 13.2292 17.7821 1.5294
1584 1 1 13.1349 16.1029 37.6226
1134 1 1 11.7461 18.1594 1.30038
501 1 1 15.0306 15.7751 0.844416
3499 1 1 15.475 18.3861 2.57932
2038 1 1 14.1249 15.8369 2.48662
7390 1 1 15.1072 16.8202 37.2373
7787 1 1 17.0383 16.798 1.55285
5999 1 1 18.7571 18.2113 1.10697
314 1 1 17.6147 0.0272123 1.02511
1569 1 1 0.910326 17.8486 0.829565
7210 1 1 4.07758 0.0272287 1.15423
1257 1 1 4.84411 0.262285 0.218245
1895 1 1 5.72742 17.817 1.12761
43 1 1 6.10522 16.9428 0.0506447
292 1 1 5.89415 18.4296 2.18202
287 1 1 6.3132 18.8098 37.5224
55 1 1 7.2621 17.8436 2.06862
6822 1 1 7.46026 16.4372 0.0954278
496 1 1 9.14143 17.9802 0.384723
224 1 1 11.0672 0.281363 0.452832
7713 1 1 11.9793 18.6543 37.4364
343 1 1 13.2539 0.403063 0.522323
2661 1 1 14.0199 16.7161 0.351133
31 1 1 14.7527 0.000454401 0.403647
7149 1 1 14.4909 18.0293 1.31185
1110 1 1 15.4695 18.5827 37.3248
1785 1 1 15.1381 18.7027 1.465
843 1 1 16.6036 15.8532 0.823468
847 1 1 1.34863 18.3264 2.51311
47 1 1 1.29976 0.914919 2.20531
7647 1 1 0.280995 0.225067 2.30156
399 1 1 4.48726 0.85288 1.55982
1327 1 1 3.37944 0.72521 2.36626
860 1 1 3.62965 0.176367 3.34159
487 1 1 4.98534 18.736 2.65503
480 1 1 6.10897 0.934406 4.16487
450 1 1 8.44166 0.583999 2.38039
7996 1 1 7.14088 0.319709 2.25434
6851 1 1 8.29684 17.4285 0.707466
1658 1 1 10.0298 0.830182 1.76821
887 1 1 10.0821 18.325 2.47007
543 1 1 12.5004 1.10456 2.36822
1344 1 1 13.9632 18.6075 2.56995
576 1 1 17.6732 1.43987 2.45974
7930 1 1 15.4941 2.05246 0.589119
745 1 1 0.538353 1.6198 1.56624
328 1 1 18.3207 0.962876 1.38461
762 1 1 16.83 3.35868 2.24965
115 1 1 1.73354 2.66493 2.51805
445 1 1 4.18902 1.37764 2.75078
7284 1 1 4.09017 2.63372 2.18186
2046 1 1 4.92304 2.22527 2.60292
611 1 1 4.21792 2.83083 3.43726
6986 1 1 6.78013 2.5912 4.12424
7215 1 1 6.94921 2.72162 2.86002
566 1 1 7.12038 2.00691 2.02153
7785 1 1 9.76412 1.92484 1.96539
505 1 1 11.0987 1.48505 1.32374
385 1 1 10.4238 2.72719 2.58058
1213 1 1 12.1853 2.74597 2.76819
7844 1 1 15.3664 2.71873 2.45738
1670 1 1 14.0411 3.36003 3.453
511 1 1 17.1446 1.62668 1.72061
1634 1 1 18.6881 1.66761 2.25274
7440 1 1 18.5591 2.01629 0.954607
7669 1 1 16.1418 2.26485 1.95064
1231 1 1 0.978051 2.0872 2.63211
966 1 1 -0.00190396 2.78809 2.76417
6882 1 1 3.12615 3.47374 2.6671
479 1 1 4.2543 3.71907 2.37107
318 1 1 2.89873 2.24163 1.69254
7251 1 1 5.06416 4.48276 2.20658
1331 1 1 5.89613 3.14886 3.71591
527 1 1 6.60539 4.86159 1.3564
7532 1 1 6.79125 3.27429 1.29718
6767 1 1 6.52769 4.57353 3.51609
6659 1 1 7.63375 2.71329 1.20778
2348 1 1 7.63077 3.77448 2.02209
886 1 1 9.40459 3.31225 2.29711
91 1 1 10.5092 3.6772 2.18554
1004 1 1 11.8085 3.18517 1.27755
7246 1 1 14.4589 3.28885 2.15945
581 1 1 13.0706 4.58176 2.94302
1473 1 1 14.8983 4.67513 1.94433
18 1 1 16.7674 2.50083 0.860542
537 1 1 15.1152 3.75096 3.05072
6648 1 1 18.019 3.68454 0.41034
35 1 1 0.236147 4.21859 1.94001
1265 1 1 0.731194 3.85412 3.70878
7966 1 1 1.05997 5.06879 1.95849
406 1 1 1.9874 4.68233 4.15218
835 1 1 4.93837 5.47856 1.96404
1287 1 1 3.87023 5.32023 2.79267
548 1 1 7.29082 5.64773 1.49355
5739 1 1 8.96708 4.00105 3.12902
1466 1 1 6.97316 4.83399 2.39892
661 1 1 8.59952 3.0605 3.13527
464 1 1 8.41468 4.5129 2.23125
1379 1 1 7.55316 5.13867 3.11384
7611 1 1 12.039 5.89275 1.40873
7666 1 1 11.45 4.89769 1.34749
6541 1 1 13.0752 3.31879 1.57223
7468 1 1 15.8755 4.87746 2.35706
2432 1 1 16.2674 4.52568 5.19603
6762 1 1 0.485125 4.75431 1.00281
1983 1 1 16.4971 5.82036 2.39606
651 1 1 17.8256 4.29047 2.64131
2110 1 1 0.621618 8.52861 3.71874
206 1 1 0.425236 6.96514 2.81479
1766 1 1 1.75901 5.29542 0.992613
1158 1 1 4.31682 5.73294 3.82707
7879 1 1 7.12088 7.03785 1.67289
158 1 1 5.69839 6.55834 2.09761
585 1 1 8.63141 5.11029 3.29693
623 1 1 10.4418 5.49299 2.49825
7096 1 1 9.83757 6.47171 1.7271
2103 1 1 11.6543 7.3014 2.04434
934 1 1 12.0262 5.03372 2.8671
7904 1 1 10.7889 4.52448 3.16346
1833 1 1 14.3171 5.50193 1.81417
6316 1 1 12.6437 5.6883 3.32074
7758 1 1 16.054 5.33784 4.32248
431 1 1 15.2188 5.90178 3.39621
7679 1 1 17.2513 5.76984 37.5491
34 1 1 0.611243 4.84009 2.80769
190 1 1 0.225675 6.36189 1.85674
1318 1 1 1.21216 9.41663 1.78483
1113 1 1 1.47951 7.47975 3.11125
408 1 1 3.41268 8.89536 3.55816
565 1 1 1.75923 8.43622 2.10099
7683 1 1 3.2869 8.1803 2.00162
532 1 1 6.74924 9.20431 0.520221
7921 1 1 7.14656 7.93508 1.03948
7862 1 1 6.1171 7.59078 2.41346
570 1 1 8.74528 7.87393 2.67349
7002 1 1 10.1953 9.81921 1.23889
697 1 1 9.36556 6.04994 3.2962
7422 1 1 10.4219 6.58577 2.69882
1330 1 1 12.454 7.12258 2.99352
193 1 1 12.285 8.90614 1.87336
1262 1 1 11.4119 5.87886 2.60716
498 1 1 15.2769 7.69092 1.1551
271 1 1 14.9206 4.9515 0.846372
1000 1 1 16.1424 6.73185 2.62065
6675 1 1 16.0212 8.10625 3.17877
6875 1 1 17.6337 8.1062 1.10608
996 1 1 2.50972 11.5121 4.49945
1105 1 1 2.0473 10.3723 3.35031
289 1 1 1.82423 10.0367 0.976012
7967 1 1 2.50856 8.47353 1.44918
7248 1 1 3.68481 9.78632 3.04014
1093 1 1 3.90575 10.9138 1.33268
627 1 1 5.63797 10.7446 0.901616
541 1 1 6.51234 8.78536 1.95345
2065 1 1 7.75045 9.53057 3.24167
1648 1 1 6.98711 8.56262 3.27675
7953 1 1 11.0545 8.75647 2.4775
955 1 1 9.55049 8.85401 3.67325
615 1 1 9.82536 8.04196 2.02755
188 1 1 12.7479 9.87549 2.43863
276 1 1 13.4164 8.46343 2.30988
676 1 1 13.7133 9.70775 2.68675
223 1 1 16.1943 8.45351 1.60464
960 1 1 14.5141 8.51293 2.32416
1863 1 1 18.1486 9.21126 2.00225
536 1 1 16.5826 9.64435 0.718007
1870 1 1 17.0179 8.79088 2.19249
1728 1 1 0.356096 9.57369 2.17995
7845 1 1 2.20977 10.0035 2.1046
7474 1 1 0.356447 11.3171 1.44518
590 1 1 3.047 10.4829 4.0612
715 1 1 2.32854 11.9425 3.1176
7326 1 1 3.515 10.0761 2.01955
7576 1 1 5.91616 11.8823 0.444816
925 1 1 4.71686 10.4224 1.87034
970 1 1 6.54287 10.8026 2.22568
825 1 1 7.37396 10.6074 3.28298
2418 1 1 5.61173 9.42315 1.45942
7531 1 1 7.92985 9.84302 2.07723
699 1 1 8.64741 11.2932 1.67629
1784 1 1 9.45013 10.1193 3.30156
7538 1 1 11.5385 11.2914 3.44487
7536 1 1 10.5542 10.8736 1.75709
610 1 1 12.3039 11.2986 2.82576
7851 1 1 12.7937 10.808 0.894845
1533 1 1 14.8436 10.4229 2.58271
433 1 1 11.6941 9.74591 2.16812
285 1 1 14.2412 9.20319 3.65581
146 1 1 18.2928 10.9122 1.14744
7480 1 1 17.3884 11.1175 3.27603
1637 1 1 0.928093 10.6245 0.988018
967 1 1 0.135023 12.96 2.96037
7249 1 1 2.93307 12.8884 1.35817
647 1 1 4.79662 13.4124 0.453797
7482 1 1 3.42251 11.2087 2.26325
7376 1 1 4.99986 12.8351 2.0651
1163 1 1 4.69545 13.7249 1.441
1417 1 1 6.35493 10.5847 3.53099
374 1 1 6.34638 11.8742 1.75218
277 1 1 7.51026 12.1687 1.93852
64 1 1 7.6317 12.0302 2.96036
1908 1 1 9.78807 13.9213 2.28025
1542 1 1 10.1585 11.7164 1.03379
7545 1 1 11.8339 12.2343 2.32568
6832 1 1 12.9111 12.1037 2.26791
574 1 1 14.7692 12.4144 2.16904
234 1 1 16.3093 10.7607 2.67566
683 1 1 15.3033 11.3391 2.722
7867 1 1 17.588 11.0847 2.05731
300 1 1 18.5828 11.313 3.13605
757 1 1 2.10288 13.876 2.02124
688 1 1 3.83725 12.2281 1.03884
8000 1 1 3.39058 13.6794 0.849524
1561 1 1 3.46593 14.3711 3.22963
7403 1 1 6.04633 13.774 3.40072
1210 1 1 6.97874 13.1803 2.64525
815 1 1 5.78634 14.8784 3.94627
227 1 1 10.8747 12.9855 2.09852
872 1 1 11.5501 14.0285 2.20757
7990 1 1 11.0675 13.7958 3.00833
6750 1 1 16.233 13.2387 1.56357
6824 1 1 15.6946 13.6024 0.580573
6720 1 1 18.1563 13.9547 2.66279
7350 1 1 18.7283 12.8414 1.67744
7849 1 1 0.54532 15.478 1.40533
643 1 1 1.39712 16.894 3.0181
2837 1 1 1.78232 14.5028 2.92369
7561 1 1 2.59063 14.9555 2.31711
1638 1 1 3.41261 15.6322 2.70829
1531 1 1 3.79071 14.7148 1.87118
154 1 1 3.90217 16.0828 1.74673
584 1 1 4.58672 14.5524 4.12722
1047 1 1 5.90157 15.8731 3.85721
1178 1 1 8.33394 14.9255 1.94748
286 1 1 10.6784 14.2207 1.6187
823 1 1 8.71897 14.0534 2.36943
1170 1 1 11.5612 15.6603 1.97631
1706 1 1 12.52 12.8501 3.80271
423 1 1 12.5394 14.2377 1.82105
22 1 1 13.4438 15.2779 1.84538
2345 1 1 13.9261 13.8913 1.31332
1042 1 1 16.0399 16.2691 1.77168
6535 1 1 13.9773 13.8604 0.0187042
425 1 1 16.6032 14.4788 1.67088
375 1 1 16.6355 15.7843 2.45073
6905 1 1 16.0867 14.604 0.734138
1567 1 1 16.5854 13.7818 2.64773
163 1 1 18.4165 14.9993 2.22067
7811 1 1 17.7108 16.4596 2.46935
6592 1 1 18.4179 16.451 0.260008
2367 1 1 18.157 17.3436 1.67953
7999 1 1 18.3106 15.947 1.34141
608 1 1 1.08256 17.4089 2.06343
1146 1 1 2.22455 16.2953 3.39827
682 1 1 1.5246 16.036 1.96237
1140 1 1 3.40424 18.01 0.784957
834 1 1 3.75072 17.0968 3.5758
1453 1 1 4.3807 17.568 1.60129
7180 1 1 5.58428 16.1952 0.600581
1328 1 1 4.46352 16.8726 2.62468
7926 1 1 5.83394 16.484 2.58516
7698 1 1 5.9076 16.7683 1.55811
141 1 1 7.91498 16.0752 2.9589
7700 1 1 9.678 16.5263 2.20185
6027 1 1 10.4415 16.3775 1.45077
1133 1 1 9.91866 17.2759 2.70836
726 1 1 12.1775 14.6691 2.67673
7987 1 1 12.6048 17.0001 1.76167
1590 1 1 13.4 16.2183 4.26881
1200 1 1 17.4937 17.6692 2.58791
7163 1 1 16.1593 17.0349 2.66595
7188 1 1 0.132618 17.9478 2.19976
7968 1 1 2.45525 18.5415 2.04071
7887 1 1 2.15321 17.6166 2.64868
7581 1 1 4.93083 18.5378 1.53996
1094 1 1 3.0175 18.2155 3.08167
7119 1 1 4.02239 18.0009 3.1138
2824 1 1 6.6262 1.6113 3.56195
7503 1 1 5.70291 0.724144 1.95957
1582 1 1 8.6613 16.1405 2.14712
841 1 1 9.04622 17.3799 2.19478
814 1 1 9.71405 17.9743 1.52717
7588 1 1 9.63197 0.136587 3.24064
708 1 1 10.7506 17.7164 0.746913
7745 1 1 11.5506 18.0479 2.57986
2020 1 1 10.8887 0.183408 1.47552
421 1 1 13.6527 17.3935 3.58382
788 1 1 15.9665 17.0518 1.24324
33 1 1 17.6737 17.4297 0.461924
525 1 1 16.47 1.56022 0.5998
7903 1 1 18.0599 18.7081 1.9471
310 1 1 0.578084 1.23499 4.90724
552 1 1 0.554157 18.6019 3.22563
915 1 1 2.10905 0.121015 2.82932
7123 1 1 6.03473 18.6945 3.06558
293 1 1 6.78159 0.0889966 4.42641
1488 1 1 5.6802 0.0311334 4.45952
96 1 1 8.68782 1.71318 3.70008
7535 1 1 7.41244 0.623795 3.39664
1339 1 1 9.30102 0.20672 2.18668
7619 1 1 8.74477 0.529695 3.5228
239 1 1 8.48813 18.331 4.65806
7616 1 1 9.1639 1.19319 1.55536
700 1 1 10.9868 0.907935 2.75448
7478 1 1 13.0514 18.7419 2.07944
6673 1 1 12.029 18.7106 4.21514
7155 1 1 11.6824 0.632402 5.54883
1992 1 1 14.1208 1.24289 4.74194
671 1 1 12.5274 1.27727 4.47064
383 1 1 15.3269 1.64608 2.85218
1229 1 1 16.3744 2.13944 5.67737
7914 1 1 16.4262 1.21153 4.14921
7549 1 1 15.4301 0.456805 3.1042
1020 1 1 16.2408 2.40564 3.27051
558 1 1 17.2899 0.286069 4.44396
1223 1 1 17.8149 0.357058 5.61685
727 1 1 3.22 1.2447 3.49669
1373 1 1 1.57659 0.890932 3.68432
7754 1 1 5.30205 1.0632 2.7612
2126 1 1 8.03008 2.46104 2.45528
593 1 1 8.94744 1.56232 2.55542
528 1 1 11.1055 1.92132 3.41197
7287 1 1 13.0256 1.16391 3.48621
180 1 1 11.5723 0.713305 4.45568
906 1 1 14.1651 2.03956 3.52689
636 1 1 15.3544 2.97824 3.53567
874 1 1 16.4061 3.94839 4.42063
6975 1 1 1.39969 2.95855 3.76307
1202 1 1 4.15601 4.45548 3.55119
2365 1 1 3.6383 3.18416 4.79235
936 1 1 3.19774 2.23937 3.16156
1376 1 1 4.92753 2.73446 4.45089
7648 1 1 7.45787 3.44367 4.28603
1378 1 1 8.20438 2.65327 4.15423
1309 1 1 7.52151 3.81261 3.36801
890 1 1 8.86997 3.34114 4.51989
1416 1 1 8.6249 2.52347 1.45356
173 1 1 11.8253 2.80403 3.86375
7250 1 1 13.3634 2.68351 4.10307
1826 1 1 13.172 3.85485 3.98197
1336 1 1 15.1336 4.45527 4.7291
7776 1 1 15.9488 4.65225 3.59967
1672 1 1 17.2153 2.71145 4.26258
148 1 1 16.3347 3.80072 2.94165
1718 1 1 2.25168 1.58453 3.18751
7122 1 1 1.31182 1.91033 3.69996
7950 1 1 18.6217 3.93552 3.13213
62 1 1 2.52113 3.51806 3.8447
580 1 1 3.04191 5.0235 3.36603
1409 1 1 5.58567 4.06948 3.31921
358 1 1 4.66947 3.66984 4.09012
440 1 1 5.824 6.03576 3.96421
1809 1 1 7.93977 4.85601 4.14311
488 1 1 7.84368 5.94207 4.39632
1076 1 1 9.76272 5.02464 3.2265
469 1 1 9.07213 4.41198 4.14304
140 1 1 10.3344 4.37052 4.26799
2736 1 1 9.92752 3.71499 3.38093
7625 1 1 9.58423 4.30678 2.02221
1377 1 1 13.6517 4.03195 2.36628
2305 1 1 11.2913 3.02867 2.81054
958 1 1 13.2408 5.34815 2.36262
850 1 1 12.9121 4.78684 4.33145
1438 1 1 15.0519 5.39894 4.4685
1348 1 1 17.3487 5.36662 3.12904
2071 1 1 18.1757 4.86087 4.56038
913 1 1 1.09571 6.15334 3.39547
481 1 1 18.6642 6.55309 4.14024
928 1 1 2.90298 5.63285 4.2489
98 1 1 1.11895 6.29686 4.35494
983 1 1 4.92029 6.59642 3.75474
114 1 1 4.26759 7.45942 3.48568
1427 1 1 5.76515 6.84528 3.31401
7718 1 1 5.9398 4.95479 2.63569
1052 1 1 6.94417 5.46269 4.73116
7138 1 1 6.44351 6.22871 2.95281
7823 1 1 7.05853 6.88633 4.21987
1051 1 1 8.90288 8.19961 3.91503
153 1 1 9.95446 6.08702 4.02282
557 1 1 11.4565 7.62512 4.31863
1759 1 1 10.7201 5.66252 3.53655
1070 1 1 13.361 5.93699 4.81915
387 1 1 12.2548 3.6598 2.02268
7273 1 1 13.6188 6.69689 2.45376
2197 1 1 13.749 7.98243 3.3584
470 1 1 13.5172 6.22217 3.41973
1925 1 1 14.5483 7.66824 4.00477
602 1 1 16.3701 6.98508 3.59852
1939 1 1 15.5418 7.26787 4.70835
7444 1 1 15.7167 7.62524 2.12136
1275 1 1 17.6193 7.88809 4.71027
144 1 1 17.1574 6.19806 4.044
1793 1 1 18.7427 7.81951 3.69551
1709 1 1 17.8291 6.9532 5.08965
959 1 1 0.601957 9.58767 3.30495
1596 1 1 2.7024 7.94045 2.95975
7395 1 1 3.59244 8.09494 5.10501
403 1 1 2.7907 8.29432 6.11168
1475 1 1 5.88619 8.31932 3.78709
1883 1 1 5.26912 5.64933 3.02208
7659 1 1 4.18312 7.14906 1.82188
45 1 1 6.7655 9.26107 4.447
1177 1 1 6.80996 7.64415 3.38021
7701 1 1 4.60725 9.01532 3.12909
1301 1 1 7.77725 8.11089 2.33153
1008 1 1 9.7174 9.40711 4.68916
980 1 1 10.1073 7.52706 3.95926
7654 1 1 10.6781 6.85089 4.46366
519 1 1 12.9091 8.05297 3.88441
1478 1 1 15.2332 8.8702 3.71024
1441 1 1 14.233 7.40284 1.71549
736 1 1 16.2688 9.65985 3.69476
1631 1 1 17.4375 7.10353 3.62444
1715 1 1 16.8851 8.93179 3.48655
628 1 1 16.5524 8.08564 4.10275
1942 1 1 17.7353 8.29986 2.84241
2239 1 1 0.0890228 8.91158 4.57351
1917 1 1 2.73708 9.21987 2.92706
2084 1 1 2.88013 9.25161 4.5545
7791 1 1 4.18019 9.23778 2.22153
1003 1 1 3.5801 10.1093 6.24274
344 1 1 5.47331 8.92208 2.67958
345 1 1 8.28522 10.963 3.51682
1001 1 1 7.29855 10.1607 4.42148
1649 1 1 9.71116 8.16479 4.55686
7461 1 1 10.1751 8.51791 3.06398
231 1 1 10.9108 7.61903 3.0784
241 1 1 10.9057 9.95589 2.6694
944 1 1 13.9555 8.18549 4.63053
1422 1 1 15.1199 9.19393 2.701
108 1 1 16.6807 9.63736 2.68619
1350 1 1 18.3612 9.60094 3.21598
6972 1 1 18.2361 10.486 2.50978
667 1 1 0.268286 10.4216 3.96438
7603 1 1 1.41726 11.3469 4.0931
1878 1 1 2.20196 12.5294 4.71337
7805 1 1 3.46112 11.7655 3.31418
6683 1 1 5.42304 11.7636 2.32759
639 1 1 4.42469 10.6236 2.97852
478 1 1 5.84099 11.2305 4.66822
290 1 1 6.40322 9.60234 2.60585
3250 1 1 9.31023 8.81364 2.52919
1069 1 1 8.61867 9.2055 4.43071
1530 1 1 8.30965 12.5783 4.31138
1825 1 1 9.98683 12.8814 3.13249
136 1 1 10.8313 11.6043 5.42365
1175 1 1 11.3273 11.4661 4.35983
2062 1 1 10.7179 10.5862 3.84866
1460 1 1 12.708 10.0684 3.46573
638 1 1 15.1521 10.8036 4.50681
1537 1 1 13.3057 10.9818 3.34568
1183 1 1 15.2795 10.4511 3.46459
1189 1 1 14.3406 11.1658 3.17046
790 1 1 17.7471 9.60086 4.20412
1965 1 1 17.0147 11.5175 4.28213
877 1 1 0.880364 12.071 2.89427
1968 1 1 1.31122 12.7399 4.09643
6563 1 1 2.71901 13.706 3.35426
1128 1 1 4.24692 13.7057 2.60444
1445 1 1 1.59954 13.023 2.32662
2748 1 1 3.62316 12.9209 3.39479
1486 1 1 4.2774 12.4955 2.76114
365 1 1 5.28395 12.2209 4.28512
684 1 1 6.71582 12.2269 4.13256
1046 1 1 6.62774 11.6357 3.17743
1224 1 1 9.2025 11.3079 2.81856
1103 1 1 11.1928 12.0623 1.14725
1357 1 1 9.47711 11.9501 5.0031
1112 1 1 12.4031 11.5026 3.90279
386 1 1 13.8933 11.9656 2.61754
7858 1 1 15.0392 12.7123 3.25861
6599 1 1 16.2975 12.6645 2.55909
1107 1 1 15.1309 14.0723 4.03284
235 1 1 16.1101 10.7476 3.83533
7052 1 1 16.8928 12.3277 1.60382
7993 1 1 16.3785 12.8594 4.18005
265 1 1 17.1548 10.8747 5.27442
1005 1 1 18.4268 11.9012 2.2378
6674 1 1 0.93492 12.0324 5.02851
1276 1 1 18.5568 11.3495 4.38537
724 1 1 1.69039 13.1021 5.47366
85 1 1 3.16237 13.7859 2.05021
336 1 1 1.11229 13.4147 3.26226
325 1 1 5.12383 13.4639 3.83382
1958 1 1 3.25918 12.9107 4.65828
1504 1 1 6.2714 13.3501 4.40151
7464 1 1 7.4367 13.25 3.47271
7620 1 1 9.33703 15.0665 2.50026
2425 1 1 9.88683 14.0395 4.19706
1545 1 1 8.89168 11.9792 3.52595
1174 1 1 10.6066 13.0992 4.07706
7550 1 1 12.0993 13.7671 3.23411
7040 1 1 13.8426 12.9955 2.50261
1187 1 1 13.4644 14.181 4.04321
389 1 1 15.9454 13.3695 3.40759
2414 1 1 13.2071 14.0073 2.92512
670 1 1 18.3043 15.8157 2.90025
7515 1 1 17.3099 14.6623 4.68219
6719 1 1 17.2615 13.0718 2.92358
306 1 1 0.35272 12.0216 3.7531
712 1 1 17.3366 13.4745 3.90875
2358 1 1 0.255836 14.561 3.12949
1086 1 1 1.30392 15.8049 3.57868
393 1 1 0.841239 15.7646 2.64471
1173 1 1 1.69141 15.4585 5.31159
7840 1 1 4.29731 15.6846 4.04449
971 1 1 3.69737 16.2476 4.77597
260 1 1 3.95912 13.5868 4.11509
1912 1 1 6.64541 16.0238 2.92373
1266 1 1 5.84627 15.5551 4.86898
1932 1 1 6.3475 16.5435 4.81207
7984 1 1 8.55982 13.4472 3.48714
504 1 1 7.47256 15.1376 3.37598
411 1 1 8.98966 16.1952 3.55446
468 1 1 9.86147 15.2083 4.88923
2224 1 1 12.3844 14.7827 4.17612
7855 1 1 14.6858 14.7478 3.16431
1474 1 1 15.9864 14.7286 2.94207
1916 1 1 15.5972 15.3231 1.4803
982 1 1 15.7316 15.0865 3.98786
1087 1 1 16.431 14.2993 3.80186
1234 1 1 17.5421 14.5243 3.2839
853 1 1 0.626581 17.0803 3.97318
2776 1 1 18.2704 16.878 3.38166
2033 1 1 18.7861 16.3198 2.14183
809 1 1 0.7144 16.7514 5.12006
728 1 1 2.79603 17.1494 3.18469
7957 1 1 4.4609 17.1178 4.72044
902 1 1 4.61093 16.0118 3.12213
1485 1 1 4.22136 14.8362 2.78862
937 1 1 4.97814 17.0257 3.59591
1179 1 1 5.03292 16.2864 4.37249
391 1 1 7.03675 15.7473 4.08327
394 1 1 6.47192 17.7269 3.99567
1527 1 1 4.68002 15.1027 5.05579
1500 1 1 7.2498 16.9608 3.47145
460 1 1 9.23627 16.1035 4.68678
7176 1 1 8.90819 17.3203 3.43366
256 1 1 11.4767 14.7477 3.45928
781 1 1 10.0334 16.8162 3.6965
7230 1 1 11.814 16.9917 2.96251
818 1 1 14.4049 16.0536 4.70312
2150 1 1 14.9843 17.1491 2.10392
1167 1 1 13.2604 18.194 4.52801
1119 1 1 15.0427 17.1045 3.30027
443 1 1 17.0574 16.1701 3.24737
1539 1 1 16.4745 17.0959 3.73937
990 1 1 16.6031 18.2851 4.18517
1149 1 1 17.6867 15.4523 4.07
1007 1 1 17.3926 17.7219 3.68748
2471 1 1 0.0491073 18.2677 4.3768
397 1 1 2.24307 18.695 4.27914
1198 1 1 1.23969 17.9382 3.64559
1514 1 1 2.76469 16.8289 4.22651
2285 1 1 5.38597 17.8501 3.44315
7197 1 1 5.57316 17.2312 4.74163
7613 1 1 5.3674 17.5356 2.1547
829 1 1 7.08764 17.9351 3.06941
3576 1 1 8.01394 17.1895 2.60192
94 1 1 8.93276 18.1853 2.84185
1687 1 1 7.9986 17.769 3.49308
885 1 1 10.6366 17.8944 3.18158
2270 1 1 12.7379 18.0792 3.43052
149 1 1 15.026 17.024 4.43119
7911 1 1 16.2424 1.02731 2.16317
7 1 1 16.7344 0.506921 3.17369
785 1 1 0.159515 0.05676 5.41177
427 1 1 18.2593 18.3426 3.56639
1205 1 1 0.0169208 0.465442 3.94373
430 1 1 2.18646 18.6097 5.60198
845 1 1 2.62422 0.93233 4.27089
105 1 1 4.52841 0.380469 4.04029
1367 1 1 3.8455 1.1168 4.6003
894 1 1 3.56101 0.26002 5.47337
1442 1 1 4.87206 0.449043 5.01583
7896 1 1 5.91987 1.32846 5.34888
1776 1 1 6.62952 0.197314 5.60227
2176 1 1 7.43978 0.834003 4.76354
209 1 1 7.62152 2.20696 5.34462
7762 1 1 7.40775 18.5119 5.14804
7997 1 1 10.4728 0.740784 4.65815
1505 1 1 10.7576 0.0649646 3.77651
7989 1 1 11.1682 1.79165 4.31543
553 1 1 11.6987 1.78144 5.27657
1587 1 1 12.5809 0.230135 5.02501
946 1 1 15.418 1.63242 4.13896
859 1 1 14.1122 0.544299 3.48471
870 1 1 14.5909 0.303229 5.19521
1999 1 1 15.6754 0.118962 4.09505
7601 1 1 18.211 1.30596 5.06062
2681 1 1 1.06689 0.64435 6.17589
954 1 1 1.58549 0.791587 5.1818
547 1 1 3.22035 1.98659 4.26521
1279 1 1 4.49657 1.84903 5.36466
951 1 1 5.19647 2.51527 6.05344
1355 1 1 6.635 2.27786 5.02852
1852 1 1 7.53234 1.62089 2.88156
1181 1 1 8.34154 3.30221 5.52803
2054 1 1 8.84245 2.10279 4.79791
824 1 1 9.67381 1.93 3.23696
587 1 1 10.2012 1.72891 6.46548
3337 1 1 9.91538 1.54052 4.82162
1308 1 1 11.0752 3.64841 3.46471
1749 1 1 9.44366 0.219462 4.37826
1317 1 1 12.1661 3.3607 4.82158
1203 1 1 12.7555 2.32862 4.90076
1661 1 1 14.9985 1.56519 5.40503
1755 1 1 13.3829 2.24937 6.13226
780 1 1 14.8235 3.13058 5.24945
1345 1 1 14.06 2.05072 5.34879
7044 1 1 15.8162 3.13771 6.2214
409 1 1 15.3713 1.87016 6.47579
2323 1 1 16.9431 1.90998 4.7384
151 1 1 16.9591 1.60806 3.37872
109 1 1 18.5245 1.33668 3.75078
139 1 1 1.38023 1.72268 4.8237
412 1 1 2.8481 1.91871 6.0292
7028 1 1 3.05908 3.53444 5.86894
1930 1 1 4.26709 1.89013 4.05831
848 1 1 5.02414 4.17842 5.47756
656 1 1 5.12554 1.44697 4.6266
1323 1 1 5.58657 3.17061 5.3604
1255 1 1 7.66272 1.81544 4.20996
7843 1 1 7.59669 6.40589 5.29988
2397 1 1 5.69376 4.17999 4.33784
1089 1 1 5.3142 4.28011 7.20112
492 1 1 9.67866 2.96938 4.05751
7219 1 1 7.42406 3.2376 5.37067
1039 1 1 10.2336 1.14935 3.78889
2139 1 1 10.6554 3.21827 7.09488
898 1 1 9.85361 3.42742 5.3594
32 1 1 12.9285 4.0453 5.09387
1044 1 1 14.7367 2.94382 6.29839
7827 1 1 14.64 2.49408 4.40046
591 1 1 13.9607 4.97109 3.34018
1413 1 1 16.0939 2.47763 4.72658
1395 1 1 17.631 3.76174 5.95636
1338 1 1 16.8125 3.17718 5.21438
155 1 1 1.02173 5.12386 3.88886
6804 1 1 0.100364 5.73246 4.75663
1717 1 1 1.38561 3.95745 4.81693
1241 1 1 2.02765 3.55223 6.79277
7661 1 1 4.19488 4.05643 5.02745
729 1 1 4.96852 6.28275 4.74892
1159 1 1 6.561 6.0784 5.48445
1280 1 1 7.08777 7.43545 5.02718
1099 1 1 6.40063 5.89944 6.56951
454 1 1 8.03673 4.22142 5.1913
1664 1 1 11.1875 4.11772 5.02177
6463 1 1 12.2949 5.84686 4.56856
2221 1 1 11.8565 4.9719 4.07407
985 1 1 12.083 4.06898 3.26384
7712 1 1 13.9272 4.8993 4.75125
2392 1 1 15.6067 5.85997 5.37925
2075 1 1 13.9998 3.83511 5.00992
914 1 1 17.087 4.89624 4.40441
6443 1 1 18.463 3.27445 4.12894
7228 1 1 17.8415 3.93381 4.90711
1538 1 1 1.19634 7.34532 4.98497
1443 1 1 2.58878 3.92925 4.9728
7651 1 1 1.0766 6.49614 5.77026
523 1 1 2.54955 7.37347 5.42189
1543 1 1 4.29738 4.96561 4.5126
1754 1 1 3.87256 6.7432 4.32085
1410 1 1 2.0876 6.98911 6.39336
1802 1 1 5.56914 7.15952 5.18943
904 1 1 7.45392 7.322 6.73734
571 1 1 8.33767 7.30165 4.5901
177 1 1 8.56745 5.48149 5.05999
6627 1 1 9.24686 5.4788 5.93774
685 1 1 10.024 6.40144 6.39513
1724 1 1 9.9135 6.52316 5.13179
102 1 1 12.6326 6.71555 5.1426
1519 1 1 11.5871 6.52582 5.55189
281 1 1 12.4015 5.0374 5.20386
1291 1 1 13.988 6.09946 5.70532
908 1 1 15.3221 6.30768 6.35257
7804 1 1 16.2144 6.31077 4.44865
7352 1 1 14.7563 7.75368 5.32489
2645 1 1 15.0008 7.18937 3.17236
7308 1 1 16.402 5.95069 6.13437