ITEM: TIMESTEP
800
ITEM: NUMBER OF ATOMS
8000
ITEM: BOX BOUNDS pp pp pp
0.0000000000000000e+00 1.8820720577620570e+01
0.0000000000000000e+00 1.8820720577620570e+01
0.0000000000000000e+00 3.7641441155241139e+01
ITEM: ATOMS id mass type x y z
547 1 1 18.8118 18.4719 1.10182
835 1 1 1.12496 2.32683 0.475983
319 1 1 4.06863 1.01466 0.162342
96 1 1 2.30532 2.82745 1.25417
917 1 1 2.83323 3.35999 3.15991
796 1 1 3.15864 3.17149 0.550381
38 1 1 5.54938 2.28141 0.791037
696 1 1 6.71243 3.13522 1.01813
775 1 1 4.92681 1.09597 37.4693
1208 1 1 6.45931 1.43486 0.0908883
1178 1 1 6.82461 17.387 37.3442
7287 1 1 8.97161 1.27348 0.853792
814 1 1 10.8568 1.2268 2.20416
838 1 1 12.0761 1.27008 2.49637
7861 1 1 12.2166 18.6532 1.37727
7938 1 1 13.9327 0.0458343 1.68674
116 1 1 11.3395 1.65075 0.497596
501 1 1 13.9244 1.17027 3.75043
7230 1 1 14.3707 16.6399 37.5449
7549 1 1 14.1518 0.992102 0.328235
1142 1 1 17.1743 0.713868 0.304922
7560 1 1 17.5685 18.621 0.918622
34 1 1 18.3774 2.7407 2.36008
753 1 1 17.6616 16.2492 1.17756
430 1 1 0.119465 2.19785 1.64206
109 1 1 3.27152 2.60327 1.72736
1675 1 1 3.94092 1.16815 5.29272
475 1 1 3.14744 5.47017 2.42791
1160 1 1 2.53077 1.82517 0.602891
1319 1 1 3.33757 3.48785 4.24862
841 1 1 4.36782 2.63476 1.82864
7316 1 1 3.70629 2.36768 0.852784
493 1 1 4.50032 0.230969 37.222
405 1 1 5.9322 0.629779 1.50936
5 1 1 9.36058 1.44897 36.7435
7646 1 1 7.51234 2.40777 0.67934
7 1 1 9.49749 1.33915 2.14521
17 1 1 7.18245 1.03688 37.0166
1385 1 1 9.70912 17.2467 3.73884
421 1 1 11.8077 1.75114 1.52469
18 1 1 8.13806 1.64461 36.8991
1270 1 1 13.0559 2.79912 0.792319
149 1 1 12.9822 2.54006 37.4685
7987 1 1 15.9442 18.2085 1.37036
113 1 1 16.0975 0.295864 0.572442
39 1 1 14.1295 2.04235 0.170516
746 1 1 16.3932 2.83554 37.5811
7601 1 1 18.3396 4.02552 1.77617
7633 1 1 0.592688 1.44602 1.07053
2432 1 1 2.17506 2.73468 0.0851573
1237 1 1 1.79175 1.66907 37.5841
209 1 1 2.43788 4.1483 1.18211
7647 1 1 1.20719 4.29854 1.52304
7253 1 1 5.35115 3.2578 4.25471
1239 1 1 3.90847 3.53976 2.71522
7607 1 1 3.53048 4.58879 3.83742
7644 1 1 7.31111 2.46109 37.193
6856 1 1 6.71438 3.83243 35.4208
455 1 1 4.88835 3.81987 2.14182
7699 1 1 7.59185 4.53081 37.2635
765 1 1 8.22459 2.57139 2.1915
633 1 1 10.7386 4.12741 0.142799
1295 1 1 9.20108 2.38943 0.821471
779 1 1 10.9656 4.63094 0.972778
385 1 1 11.2367 3.24047 0.817062
461 1 1 12.8868 3.77947 0.843056
7303 1 1 9.80409 2.09509 0.0260882
508 1 1 14.8932 3.74381 2.24657
978 1 1 14.3272 6.97764 1.91362
65 1 1 16.2562 3.41034 1.85091
420 1 1 16.8666 3.40861 2.82617
7636 1 1 18.3734 2.42364 0.288863
786 1 1 16.0464 3.82503 37.4615
356 1 1 17.0563 2.99786 1.55619
479 1 1 1.78584 4.01864 37.4597
6956 1 1 18.7344 7.36342 36.4584
324 1 1 0.686129 4.15645 37.1999
362 1 1 1.50864 6.9023 2.34938
488 1 1 4.47713 6.4364 1.98957
886 1 1 6.40782 4.82505 2.54035
445 1 1 3.85486 3.8709 0.37149
3 1 1 5.11426 4.48758 1.23829
1327 1 1 6.02857 3.36526 2.85561
7250 1 1 7.08087 5.2278 0.596584
1310 1 1 6.78501 5.43496 36.5618
1026 1 1 6.86876 7.51077 1.22313
533 1 1 8.64943 8.08636 35.8092
171 1 1 8.13749 5.04421 0.780939
938 1 1 10.0646 3.87428 36.4646
7002 1 1 8.86622 5.93452 37.5072
934 1 1 9.56529 4.59832 0.673328
505 1 1 14.5596 6.25831 1.22049
1309 1 1 14.2006 3.28378 0.764603
7855 1 1 12.8645 3.75582 2.02304
7392 1 1 15.1738 5.566 36.2642
7603 1 1 16.4605 5.98785 2.62778
2197 1 1 16.1031 3.76659 0.885563
111 1 1 13.9584 4.47688 0.0904865
442 1 1 18.3391 4.83928 36.7076
478 1 1 2.7953 7.24707 1.58288
7249 1 1 1.09925 7.14874 37.1818
440 1 1 3.52867 5.2342 0.467479
528 1 1 5.25471 5.3524 3.26211
1461 1 1 6.97799 3.70762 2.25307
1366 1 1 5.20196 7.66461 0.612073
7819 1 1 5.79584 9.23331 0.539685
7731 1 1 4.65709 8.83413 0.736034
1417 1 1 6.43616 6.7848 2.13327
7659 1 1 8.4222 8.13756 0.739567
537 1 1 10.2221 6.20176 0.642706
623 1 1 10.0601 5.63894 2.0342
973 1 1 9.95841 8.93281 1.28793
538 1 1 13.1432 8.33401 0.243999
591 1 1 11.8618 5.11935 1.77953
7591 1 1 13.1493 5.70256 0.92762
68 1 1 15.4751 5.39574 2.84579
579 1 1 14.2505 8.90787 37.3387
7754 1 1 18.4151 6.12391 0.48476
554 1 1 15.7305 5.86976 1.29361
7641 1 1 0.0754174 5.31248 0.617729
159 1 1 14.8915 7.92458 1.90305
7879 1 1 1.17429 8.28674 37.0576
7239 1 1 1.53568 8.25969 35.32
580 1 1 2.17802 6.62732 3.10934
1369 1 1 3.61014 5.75233 1.54777
1048 1 1 3.17946 9.93021 1.40978
6896 1 1 4.82296 7.03643 1.30388
653 1 1 8.09451 9.82447 1.00357
647 1 1 6.04169 9.80426 1.60073
539 1 1 8.37363 8.6804 2.4234
137 1 1 6.37901 8.11384 35.6259
228 1 1 11.1821 9.18103 0.984998
1422 1 1 12.9605 7.91304 2.31572
575 1 1 11.8633 9.59515 3.51288
462 1 1 12.048 8.79548 2.54569
585 1 1 11.1732 8.62555 37.6044
532 1 1 10.9914 9.66177 37.2231
7432 1 1 13.4914 7.86457 3.26607
7821 1 1 11.8385 3.95316 0.428742
7776 1 1 13.0772 4.98488 1.85322
188 1 1 12.9603 8.78585 1.57477
556 1 1 14.5044 7.35272 2.93662
1031 1 1 13.2306 9.17762 35.8464
519 1 1 16.6609 7.2774 37.6447
1473 1 1 15.4756 6.26654 0.42862
187 1 1 15.4337 5.10604 0.109096
959 1 1 18.7874 8.06974 1.37032
7924 1 1 0.335281 8.29644 35.9697
7841 1 1 2.21767 9.46857 2.78429
197 1 1 0.20447 8.18846 0.0973038
1314 1 1 1.62191 8.38879 0.814994
164 1 1 2.85127 8.15613 0.896137
1053 1 1 4.62361 9.20711 37.4627
215 1 1 5.33689 10.5867 37.5653
300 1 1 4.01605 10.5659 2.06973
7748 1 1 7.7665 7.88251 1.84053
7011 1 1 7.4237 10.1061 0.160636
645 1 1 6.18347 10.6742 0.465878
95 1 1 8.97189 8.72642 0.119763
618 1 1 9.29985 8.49475 2.99205
178 1 1 10.2477 7.95854 0.235851
91 1 1 13.0282 10.05 1.18536
7772 1 1 13.4032 10.6601 36.9259
607 1 1 12.2251 11.4351 35.3314
7912 1 1 13.9786 9.52279 36.4685
223 1 1 13.7493 10.9643 1.27382
230 1 1 13.8154 11.6637 36.6672
444 1 1 18.7097 10.5515 1.67845
1072 1 1 14.4207 8.41045 3.06888
636 1 1 13.8136 9.37515 1.53899
114 1 1 17.9484 11.8484 37.5938
183 1 1 16.2622 9.68955 0.00377975
7758 1 1 18.3081 8.67785 2.15077
281 1 1 17.4086 8.06256 37.5826
7525 1 1 18.7588 9.57556 2.04845
962 1 1 0.707756 11.0726 1.27167
7849 1 1 1.85352 11.0914 37.0729
7854 1 1 2.35517 10.4078 37.5729
243 1 1 3.27244 11.858 0.83464
7891 1 1 5.78868 11.7847 0.338335
7541 1 1 5.00957 12.313 37.0067
7822 1 1 7.88834 11.5926 1.65816
1148 1 1 6.60396 11.5227 37.2277
7864 1 1 10.747 12.2184 37.6059
7862 1 1 7.55494 8.81145 1.52709
1105 1 1 11.4293 9.62872 4.44824
1979 1 1 10.2711 11.161 36.8939
142 1 1 11.7243 9.40381 1.80759
7904 1 1 12.9995 9.18509 2.56289
993 1 1 13.284 9.51787 37.2707
1507 1 1 12.3053 11.507 4.52608
235 1 1 14.4828 10.2114 1.31174
6316 1 1 13.1916 11.6226 0.164984
7480 1 1 16.0035 11.3674 1.05372
6675 1 1 15.6826 11.0487 36.1819
144 1 1 14.491 8.73969 1.03371
6997 1 1 16.584 10.5821 0.624792
7350 1 1 18.3444 11.2345 0.969477
238 1 1 17.7541 9.89043 0.0916735
1282 1 1 1.48183 11.7436 1.57973
1136 1 1 4.91172 13.6809 1.20382
685 1 1 2.90832 11.5091 2.79849
7847 1 1 5.34073 11.0554 1.27203
175 1 1 2.24525 10.4842 3.34812
296 1 1 6.62306 12.617 0.143478
970 1 1 7.50828 12.7531 36.5009
7499 1 1 8.73278 12.0588 0.0794577
1102 1 1 7.04613 12.7828 1.18146
1509 1 1 8.29144 13.1531 1.20933
660 1 1 8.77165 13.8164 0.654257
7516 1 1 12.575 13.5153 37.4378
333 1 1 12.0603 10.1645 36.9765
1100 1 1 11.5948 12.617 0.587869
7777 1 1 12.893 13.5343 36.3128
1182 1 1 15.0857 15.5562 37.6029
271 1 1 14.1863 11.9994 3.809
7512 1 1 12.7685 12.6192 36.9139
683 1 1 13.5094 12.3472 0.930899
285 1 1 14.9722 14.3938 37.5501
280 1 1 14.3933 12.4819 0.190954
4 1 1 17.2628 11.3709 1.04126
237 1 1 17.4951 11.8802 2.59507
7880 1 1 18.6252 10.4446 2.88069
648 1 1 1.87963 13.4595 1.39296
202 1 1 1.82491 10.0466 1.27635
7921 1 1 2.07472 13.5147 2.93234
1173 1 1 2.27272 14.6507 1.60372
246 1 1 3.13637 13.0929 37.4439
7817 1 1 3.85936 11.6356 1.65588
290 1 1 3.68557 13.1333 0.844551
7535 1 1 5.14455 14.1338 0.229951
287 1 1 7.15438 13.5414 2.08603
229 1 1 7.13969 14.7546 2.18992
1070 1 1 7.84818 12.9453 37.5609
1573 1 1 9.08671 14.8679 0.972463
1908 1 1 8.18508 14.0153 1.67498
7502 1 1 9.71899 15.1435 37.0267
7610 1 1 7.29662 14.1115 0.843415
7983 1 1 11.1583 13.2807 36.0757
1069 1 1 11.5901 13.7038 0.73293
204 1 1 17.3895 13.6692 2.09087
1108 1 1 18.0356 11.9261 1.74024
6746 1 1 18.08 12.9971 35.3699
154 1 1 1.46235 12.4736 2.82642
194 1 1 0.820927 18.0353 0.384305
873 1 1 1.42139 15.9375 1.03358
1529 1 1 2.20925 15.6058 1.88638
7574 1 1 3.03612 14.3748 37.5055
85 1 1 1.0031 15.0945 2.76245
7930 1 1 3.59852 15.343 0.616332
7897 1 1 2.92245 12.5052 1.85916
345 1 1 7.0152 14.182 36.6605
344 1 1 10.0416 14.3919 1.58339
738 1 1 8.75927 15.206 37.3584
7929 1 1 10.4823 16.9175 37.2316
1533 1 1 12.7474 12.6358 2.49521
7436 1 1 11.7932 15.0099 37.1184
7858 1 1 15.5149 13.4511 35.4171
7920 1 1 14.9023 16.1246 35.7247
670 1 1 17.0068 16.961 2.65187
278 1 1 18.2414 16.4749 2.35361
7870 1 1 18.7381 15.858 2.95515
791 1 1 3.36911 17.4313 35.9705
398 1 1 1.41339 17.8364 1.55665
310 1 1 0.418189 15.656 0.395229
331 1 1 2.76921 16.8465 1.71212
7602 1 1 3.01328 15.92 2.57442
397 1 1 2.13192 0.713655 0.711621
7086 1 1 2.75088 13.4888 0.762574
7555 1 1 4.68037 16.0495 1.65018
340 1 1 5.38585 15.982 0.721234
7695 1 1 6.66498 16.3047 36.3196
768 1 1 7.89041 14.8796 0.077466
249 1 1 7.19971 0.140408 36.2054
6936 1 1 8.06521 17.9052 37.193
7667 1 1 8.95625 18.0862 36.4885
286 1 1 9.86455 16.2553 37.5858
7613 1 1 8.79014 15.8526 0.696245
675 1 1 10.5251 16.8363 0.82378
7437 1 1 13.9757 0.0443345 37.2899
7994 1 1 12.3453 16.8389 0.669791
7951 1 1 12.2295 14.3681 0.144036
64 1 1 14.6053 16.8856 1.64285
7147 1 1 14.063 15.4848 0.267974
785 1 1 16.4146 17.6712 37.4721
7963 1 1 17.5209 16.2578 36.9414
1199 1 1 17.0996 15.5845 0.758826
834 1 1 0.252404 18.4628 2.28757
7844 1 1 16.251 16.062 1.26992
439 1 1 2.22394 17.4258 1.07827
7926 1 1 2.67263 0.0550964 1.39851
318 1 1 1.25484 18.1947 36.9942
7848 1 1 3.07161 1.39402 3.52502
6767 1 1 3.12116 1.49637 1.36202
7532 1 1 5.68445 1.6073 1.5471
7661 1 1 4.52187 2.16786 3.28084
7620 1 1 9.36497 0.293965 0.310731
141 1 1 9.89277 18.1826 37.2219
329 1 1 6.88171 1.23397 35.5218
338 1 1 8.27655 18.4286 0.664517
740 1 1 9.96156 17.1889 2.12556
749 1 1 11.7454 17.8158 36.1591
837 1 1 16.2012 17.3349 0.87509
6832 1 1 13.5125 0.145343 0.697371
79 1 1 18.3319 16.3034 0.0734024
7638 1 1 17.6951 1.01697 4.32974
1713 1 1 0.213056 18.5875 37.2719
105 1 1 0.857967 17.0843 0.93482
1158 1 1 0.592079 3.01617 4.16247
491 1 1 1.55993 2.85114 3.82763
7996 1 1 2.34921 2.01845 1.90994
7651 1 1 1.73194 1.78227 3.80213
35 1 1 2.24184 3.3571 2.163
778 1 1 3.37737 1.01821 4.49747
323 1 1 5.46705 2.96652 36.6864
1210 1 1 5.83611 16.2935 37.3537
419 1 1 8.18869 17.3761 0.953549
1541 1 1 10.6464 16.6388 2.87624
553 1 1 10.297 2.55912 5.00019
1130 1 1 13.4824 17.8431 4.41993
504 1 1 9.31656 18.264 1.29493
375 1 1 12.9131 18.569 2.0841
7779 1 1 13.0431 1.3305 2.65277
353 1 1 10.4022 0.081748 4.18171
1138 1 1 13.5395 0.930888 1.44034
7989 1 1 13.0176 1.7168 0.724535
7990 1 1 13.6631 0.437616 2.6484
784 1 1 17.321 17.1977 1.23344
151 1 1 16.634 0.730812 1.37739
1146 1 1 15.5361 18.1676 0.413747
899 1 1 0.70795 0.567582 1.48772
7950 1 1 1.0726 3.02895 2.94217
483 1 1 0.0636893 3.45276 3.2667
2134 1 1 1.32706 2.64158 1.87912
321 1 1 3.48359 2.28561 2.80873
802 1 1 3.04453 0.917024 0.135165
503 1 1 6.74596 2.88851 5.64123
487 1 1 5.73126 0.234305 3.23974
7616 1 1 5.71038 1.02203 2.47353
7585 1 1 7.66511 18.7187 1.59719
764 1 1 8.34118 1.29286 1.77418
496 1 1 7.29595 1.96858 2.89857
726 1 1 9.28954 18.7135 2.72518
416 1 1 9.33341 17.7409 2.77788
1308 1 1 9.76412 1.27211 4.72066
500 1 1 12.7097 2.47245 1.79912
1196 1 1 12.2342 2.95613 2.66695
460 1 1 13.3999 18.6093 3.44158
7911 1 1 12.1983 18.3347 2.96915
7708 1 1 15.165 2.14574 1.03643
422 1 1 15.8083 1.14698 2.30828
7997 1 1 12.0515 3.19761 1.55148
1223 1 1 13.9022 1.61884 2.22118
1238 1 1 16.5772 4.93789 2.48538
157 1 1 16.7379 1.57551 2.17255
1717 1 1 0.107344 4.79438 2.76396
7756 1 1 17.5644 5.19583 2.34741
1634 1 1 16.9852 4.51936 1.71816
520 1 1 5.50886 1.74525 3.63117
1280 1 1 2.56778 4.20267 2.65895
7715 1 1 3.7347 4.62812 2.836
523 1 1 1.01614 5.47028 4.15156
1932 1 1 4.22842 2.11726 4.23357
89 1 1 7.33062 1.68081 1.5795
527 1 1 6.89044 2.54507 2.08151
43 1 1 3.51135 0.690664 2.24106
60 1 1 7.44333 6.02914 0.106619
1168 1 1 4.43526 1.23933 1.94181
887 1 1 9.50525 2.63019 4.16184
7296 1 1 6.25383 2.46882 3.05172
7698 1 1 8.68043 3.40853 2.44031
1337 1 1 7.07 6.21433 1.2508
7700 1 1 9.26816 2.45782 2.68761
217 1 1 11.1388 4.68344 4.00141
7656 1 1 10.4479 2.14808 1.04202
781 1 1 9.95494 0.412233 2.23007
224 1 1 10.8307 4.6172 2.69113
616 1 1 12.3044 4.21684 2.75839
7665 1 1 13.6052 4.48282 1.04327
874 1 1 14.2881 2.5964 2.12838
7552 1 1 15.8468 4.32404 4.00382
1670 1 1 16.1464 4.05776 2.5318
1640 1 1 18.0805 4.06305 0.328743
1315 1 1 15.4567 2.68618 2.23767
525 1 1 16.7353 4.81423 3.82192
481 1 1 17.2349 5.82478 3.44937
1751 1 1 1.71678 4.92534 0.7171
6804 1 1 1.26082 5.55002 3.23418
7643 1 1 3.6373 6.93563 1.89124
1776 1 1 4.45666 5.50266 2.46613
7685 1 1 6.74508 3.71025 3.49788
1045 1 1 7.71592 5.34573 4.88174
1339 1 1 4.19873 4.6405 1.53172
130 1 1 5.63776 2.79324 1.88749
94 1 1 8.55204 3.92713 1.05541
1373 1 1 7.1457 4.08259 0.392909
1701 1 1 10.5705 5.57044 3.57881
581 1 1 9.55268 5.45548 3.12268
147 1 1 12.1866 3.50354 4.60148
954 1 1 14.5041 4.74176 2.85657
100 1 1 13.8447 2.27054 1.26756
908 1 1 15.9373 4.62837 1.56546
156 1 1 13.6202 5.30225 3.15909
1194 1 1 17.8496 6.85053 3.19065
801 1 1 17.822 5.04097 0.773237
1316 1 1 17.8059 7.43099 2.20057
522 1 1 1.01883 8.41272 4.41234
1323 1 1 1.76821 7.34377 3.9778
1806 1 1 18.7978 6.98707 37.6032
241 1 1 4.36447 5.68506 4.08519
1409 1 1 3.17247 6.35013 3.80624
729 1 1 0.927608 7.29017 5.38729
566 1 1 5.39914 4.60771 2.43479
7718 1 1 4.21817 10.0519 0.645854
10 1 1 5.65998 6.63806 0.877254
1296 1 1 7.92074 4.33802 3.71024
7762 1 1 7.00426 5.82191 2.26896
376 1 1 7.97176 5.30168 1.79469
497 1 1 8.92633 5.89997 2.09102
555 1 1 10.1456 6.62552 3.68613
587 1 1 8.77389 4.94625 3.73941
446 1 1 9.64659 7.17452 2.31667
140 1 1 11.267 7.97399 1.03224
498 1 1 10.9286 7.52808 2.78794
1668 1 1 14.9097 4.45933 1.04855
552 1 1 14.2764 4.97401 1.60572
515 1 1 13.633 5.81839 2.15482
1359 1 1 14.7463 6.95547 0.366751
1037 1 1 15.3223 4.04018 3.20733
1637 1 1 15.9277 8.98098 3.45083
1754 1 1 16.6386 7.74067 4.36017
1360 1 1 17.444 6.4216 2.16286
1318 1 1 0.551023 7.16103 1.7599
45 1 1 2.48818 8.18204 2.13219
158 1 1 1.61346 7.73766 1.69312
81 1 1 2.94101 6.40464 0.409962
720 1 1 2.29278 8.77627 6.04774
1766 1 1 3.63477 8.27727 1.90909
852 1 1 3.18849 7.76093 5.64049
153 1 1 4.03713 9.4451 1.97536
637 1 1 5.57481 7.22218 2.79786
1781 1 1 5.40597 8.90958 5.19173
138 1 1 6.23588 8.21495 1.875
53 1 1 6.41584 8.48181 2.79579
2177 1 1 4.27182 12.2876 0.987558
1085 1 1 6.40382 9.70929 37.2317
1727 1 1 7.54588 7.60961 4.70628
177 1 1 8.1923 7.44448 37.0242
1098 1 1 7.7178 6.87827 3.56658
890 1 1 10.8325 7.47923 4.05068
232 1 1 9.74616 9.48855 2.4515
231 1 1 12.1779 7.25497 3.01514
948 1 1 14.2802 6.24181 3.07193
1441 1 1 12.8585 6.84132 1.24611
2153 1 1 15.4751 6.73964 2.50039
193 1 1 17.5108 7.78601 1.01953
7798 1 1 14.206 8.63963 4.26962
594 1 1 15.382 8.74406 4.15807
7397 1 1 16.5727 7.14766 2.10694
7721 1 1 0.112424 5.65816 37.2404
441 1 1 18.7525 8.56595 3.92576
7800 1 1 0.276073 9.00103 0.546603
7806 1 1 2.64947 9.40633 4.09791
6484 1 1 0.774123 9.60567 5.79403
564 1 1 5.20127 8.138 2.39318
1041 1 1 4.16084 7.80176 0.764416
374 1 1 6.09798 14.2065 2.87014
7734 1 1 4.99888 10.3638 36.212
536 1 1 8.36447 10.3764 2.59074
7377 1 1 9.30466 10.0021 3.39908
1420 1 1 8.38492 9.58715 1.92775
7774 1 1 9.6726 9.58925 4.25423
7712 1 1 12.6573 6.94701 4.94928
1020 1 1 9.97795 9.87392 1.38207
1478 1 1 13.9413 8.32019 2.05489
7808 1 1 11.0154 11.7697 4.83349
1430 1 1 12.6505 10.4213 2.11144
276 1 1 14.8047 10.6113 3.08381
1033 1 1 15.7185 8.49352 1.32173
308 1 1 18.0499 9.83234 2.59576
393 1 1 0.798921 10.0175 2.88669
7931 1 1 1.3782 8.11611 2.78367
206 1 1 0.799032 9.77172 1.72013
1852 1 1 1.05137 8.86378 2.05475
201 1 1 2.30296 10.4118 2.15446
983 1 1 2.40241 9.15433 1.44297
357 1 1 8.05939 9.2949 0.102129
1376 1 1 7.40445 8.0755 3.06051
526 1 1 4.91744 12.8886 0.379081
1008 1 1 4.96272 11.5122 3.61567
1089 1 1 7.26047 10.2072 2.61261
1135 1 1 7.66543 12.1979 2.46042
1532 1 1 9.23235 10.3521 2.01988
1065 1 1 8.19751 10.7995 5.22517
615 1 1 8.91214 10.9696 1.25619
1790 1 1 9.66629 10.7198 0.41629
492 1 1 11.0737 10.1827 3.64378
227 1 1 8.722 14.2361 2.96202
7811 1 1 12.2458 12.1621 3.25342
1044 1 1 10.3534 8.28099 2.30837
638 1 1 13.3069 10.3296 2.99143
593 1 1 12.2251 8.80957 4.95024
1074 1 1 13.8339 11.3318 2.4989
7395 1 1 13.0551 9.25113 4.20338
669 1 1 16.8927 10.9219 2.41071
7804 1 1 15.9907 8.55558 2.40738
349 1 1 18.0043 9.11573 0.948925
6569 1 1 18.3873 11.0188 3.72425
7322 1 1 1.5427 9.97829 4.58371
162 1 1 0.401683 8.88493 2.89528
1005 1 1 1.06936 11.0068 2.26869
327 1 1 1.83024 11.3732 2.83249
925 1 1 4.2667 10.5662 3.10093
7928 1 1 1.23483 10.6517 3.82625
233 1 1 3.44756 11.2324 4.98454
342 1 1 5.03551 12.2581 1.68716
1486 1 1 3.08139 13.3829 2.54638
1017 1 1 7.41004 12.861 3.22776
699 1 1 8.77355 12.0174 1.11175
1103 1 1 10.1932 11.2482 1.99207
1822 1 1 11.7262 10.3036 2.45027
610 1 1 12.0363 11.898 1.83831
1153 1 1 12.7663 13.8857 2.16847
1538 1 1 13.9953 10.8079 3.71417
878 1 1 14.5748 13.0084 2.32769
1073 1 1 15.3304 11.948 2.07869
7444 1 1 15.3961 9.56843 0.756942
2234 1 1 14.6121 11.5594 0.747103
559 1 1 18.6393 13.3999 0.20199
7791 1 1 0.426194 11.0896 3.18012
1484 1 1 17.4838 12.8591 37.6177
7757 1 1 17.8748 13.6253 3.8393
404 1 1 0.891106 11.169 4.79346
7052 1 1 0.667025 13.6481 2.52668
1128 1 1 0.362827 12.0025 1.99789
2373 1 1 4.59909 11.4687 0.339149
7180 1 1 4.27746 15.0747 1.50506
7487 1 1 6.16763 13.0597 4.10075
691 1 1 7.99416 13.2705 2.45489
2661 1 1 8.93054 15.6076 1.74246
7936 1 1 4.10933 13.1567 1.84968
225 1 1 8.99431 12.9856 1.91675
1133 1 1 7.88728 15.6253 1.22788
7945 1 1 10.9952 14.7565 1.34395
736 1 1 9.48221 14.9269 2.52166
1501 1 1 10.8798 14.3071 37.5089
7464 1 1 11.1509 13.3045 37.2172
259 1 1 13.7313 13.9336 1.75987
2244 1 1 10.1337 13.09 0.245217
1942 1 1 14.5418 13.0631 4.03119
1368 1 1 16.1421 12.8144 1.07505
608 1 1 17.4452 13.2171 36.4793
7515 1 1 17.133 13.9794 3.02807
1389 1 1 18.6461 13.8606 3.10775
1439 1 1 0.180492 10.1299 3.79235
1427 1 1 18.6489 12.6812 2.8862
7968 1 1 0.843451 16.1518 3.49368
686 1 1 1.74782 0.334725 3.69022
7658 1 1 18.7699 13.1531 4.16817
590 1 1 0.736019 12.313 4.51575
609 1 1 2.57933 15.2332 0.838938
7835 1 1 2.68312 15.2841 3.42337
1081 1 1 4.88922 15.1133 0.426686
1446 1 1 3.57111 16.2387 1.65235
7503 1 1 5.37907 13.7193 2.23764
1485 1 1 5.65857 16.4752 1.66318
7123 1 1 4.83426 15.8491 2.65345
7579 1 1 5.66049 11.8749 2.58646
690 1 1 6.44229 15.1118 1.00435
773 1 1 6.38188 15.6923 1.8383
31 1 1 10.8642 15.8761 0.737007
304 1 1 10.615 12.7336 2.22124
1170 1 1 9.82375 15.6881 0.928599
7531 1 1 8.10973 14.5871 4.56122
7508 1 1 11.572 17.0572 4.08715
7829 1 1 11.7258 12.9848 3.56109
7834 1 1 14.3426 13.279 1.26028
273 1 1 13.6076 14.3121 2.82284
1192 1 1 15.0722 16.3539 36.9325
7075 1 1 13.2034 14.8065 0.406984
990 1 1 16.6206 14.4932 1.60332
7551 1 1 14.4153 15.8788 2.61825
306 1 1 14.7796 14.6712 0.885292
1561 1 1 0.173154 15.2199 1.48388
1149 1 1 0.018297 16.8637 3.20206
394 1 1 2.23896 16.0748 7.07983
248 1 1 2.2204 17.4678 2.431
755 1 1 3.53214 15.2395 2.14272
7972 1 1 3.83306 0.5175 1.16854
643 1 1 3.40999 17.4701 0.278014
7455 1 1 4.89627 17.4822 1.72784
1131 1 1 6.86954 17.1669 2.82915
292 1 1 7.03158 16.6448 1.85973
1172 1 1 5.83788 14.9545 0.0528101
16 1 1 8.12616 14.8404 2.42607
700 1 1 9.1822 16.8132 0.880069
346 1 1 9.6903 17.6664 0.500025
381 1 1 10.5136 15.6496 1.69852
1506 1 1 11.8958 16.1805 1.25417
1226 1 1 8.57802 0.336373 1.42594
658 1 1 11.4372 18.6166 0.363878
379 1 1 11.5552 14.2785 2.14332
2062 1 1 11.9332 14.7846 1.11875
1107 1 1 15.0748 16.2233 0.659579
7040 1 1 14.6382 17.5553 2.5958
1537 1 1 14.964 14.0574 2.0258
33 1 1 16.3504 18.002 3.26367
1233 1 1 16.6747 15.8118 3.37834
7561 1 1 1.39311 18.6729 0.956878
1474 1 1 17.3911 17.8671 2.15581
1198 1 1 1.48484 18.6575 1.99925
412 1 1 17.6852 1.05915 1.64499
7197 1 1 0.910756 17.3552 4.36866
1481 1 1 1.57457 1.40151 2.54205
155 1 1 0.542348 3.15252 1.03999
325 1 1 3.18934 16.9594 2.5888
207 1 1 5.25475 18.4068 2.25157
7896 1 1 4.612 0.898479 4.36046
889 1 1 5.05695 18.3725 1.18053
363 1 1 5.94736 17.6303 1.58837
27 1 1 9.72431 15.9066 2.82492
1174 1 1 8.00905 18.7164 3.97973
7913 1 1 12.6927 18.0649 0.254299
820 1 1 9.27222 0.147882 4.14568
7550 1 1 10.6503 18.222 2.6155
22 1 1 13.6797 17.7073 1.34084
982 1 1 12.6198 16.9101 1.68115
391 1 1 11.5564 17.7481 1.9499
433 1 1 12.5621 15.5656 1.67701
1272 1 1 14.9533 18.568 1.60213
754 1 1 13.8405 18.0713 2.42377
2033 1 1 17.2176 18.6297 3.31149
40 1 1 17.8759 17.5616 3.02069
800 1 1 18.4703 1.13823 2.8601
888 1 1 0.785221 16.8098 2.68942
1200 1 1 0.756108 0.861768 2.83945
1106 1 1 1.29617 2.69644 5.17138
843 1 1 2.45298 0.58506 2.45316
7614 1 1 4.34849 18.8085 1.97474
1201 1 1 4.95312 0.797034 0.990896
777 1 1 6.37795 17.4496 4.6877
7678 1 1 5.06514 18.4509 4.33412
1141 1 1 6.11768 18.0879 5.7715
1584 1 1 6.96626 0.640404 4.85668
6 1 1 8.84964 18.2057 4.83388
855 1 1 6.82826 0.111936 3.46826
1548 1 1 11.0479 16.5129 6.31202
1250 1 1 11.3239 17.702 3.11296
869 1 1 12.8158 1.20813 3.5533
139 1 1 14.5772 0.453947 3.64511
941 1 1 11.9339 0.426484 4.51339
20 1 1 14.7037 0.00374166 2.72144
7155 1 1 14.479 0.870472 2.02592
7478 1 1 15.1126 0.7637 0.814165
1187 1 1 13.0027 16.2691 2.51229
7887 1 1 16.5341 18.4114 4.47099
364 1 1 17.8484 3.11077 3.68165
2029 1 1 17.4754 0.584656 2.59032
884 1 1 1.67881 4.45186 4.19896
336 1 1 3.28392 17.8098 3.53033
47 1 1 2.01795 2.32702 2.90216
1129 1 1 2.61354 1.67859 5.47424
1638 1 1 3.62184 17.0421 5.00858
7298 1 1 4.76939 18.3058 5.8376
1340 1 1 6.2999 2.9137 4.31793
971 1 1 6.00416 0.580569 4.69562
93 1 1 6.7305 1.77607 4.07551
937 1 1 6.45108 1.324 3.13298
1582 1 1 8.19524 0.608353 2.97304
7150 1 1 9.72697 0.765606 3.24392
863 1 1 8.64164 1.43791 3.56952
511 1 1 10.9919 2.19217 3.57936
26 1 1 15.7842 2.88565 5.74373
821 1 1 11.7381 1.85189 5.47921
7619 1 1 11.3239 2.45721 2.10908
818 1 1 11.1325 1.41526 4.53346
1540 1 1 14.7364 1.98817 3.40133
427 1 1 15.0169 1.84756 2.51001
1964 1 1 16.4445 1.55827 0.834679
752 1 1 17.9522 2.23777 1.2602
756 1 1 15.5084 2.39745 4.77978
115 1 1 0.679193 1.14955 3.95644
450 1 1 2.44225 5.59685 3.22566
1636 1 1 18.3908 5.96691 1.75691
603 1 1 4.99519 4.85368 4.29776
1738 1 1 0.736244 4.50681 3.66429
1216 1 1 5.99032 4.13512 4.68791
767 1 1 4.69182 4.37501 3.06062
885 1 1 7.22349 4.01579 4.68989
734 1 1 6.86728 1.82317 5.21312
1336 1 1 8.87147 3.6304 3.82391
977 1 1 7.39098 2.7766 3.84459
41 1 1 8.43322 2.54301 3.33784
1206 1 1 7.95813 3.53633 3.06376
611 1 1 9.21103 4.18847 2.97105
850 1 1 10.9473 3.13355 4.20402
1687 1 1 9.73376 2.47724 1.66552
876 1 1 9.88622 3.3725 3.37362
824 1 1 11.4088 4.0304 1.75558
588 1 1 11.8832 3.78943 3.71674
426 1 1 12.6958 2.6119 5.02061
1597 1 1 13.0031 4.46859 3.59289
543 1 1 13.9764 3.65826 1.82171
514 1 1 14.285 3.08847 2.92092
495 1 1 14.2548 2.93126 4.89274
910 1 1 16.7793 3.73848 4.0075
119 1 1 14.7762 4.17217 4.75451
2159 1 1 17.3354 2.4865 2.6078
7228 1 1 18.2614 2.15192 3.29142
1197 1 1 1.101 4.17776 5.3034
1241 1 1 0.24052 7.45342 4.63404
848 1 1 2.01259 5.67714 2.17036
1334 1 1 0.661261 6.1791 6.90366
98 1 1 1.07911 6.97574 0.5927
1330 1 1 5.78433 5.4676 4.90891
2136 1 1 5.67982 4.20856 3.4755
965 1 1 6.73059 4.9945 4.50776
1729 1 1 5.78845 1.51934 4.76203
7219 1 1 7.24968 4.53578 5.66743
180 1 1 8.20114 5.44216 2.76012
1331 1 1 9.60489 4.27623 4.59439
1066 1 1 10.2908 3.52092 5.15537
2150 1 1 11.3969 3.66645 2.66067
909 1 1 11.2973 5.70872 2.62827
1229 1 1 13.6689 4.04027 2.72089
173 1 1 11.3572 6.54147 3.85439
32 1 1 12.3278 5.29569 3.30682
1413 1 1 12.3135 4.52722 4.24274
947 1 1 12.272 4.12321 6.25431
470 1 1 13.3139 6.72282 3.74859
2232 1 1 12.8944 3.34251 3.45771
509 1 1 15.5926 5.27216 4.30177
1202 1 1 14.0038 5.72151 3.98234
2071 1 1 17.6041 7.07816 4.44416
1759 1 1 15.8012 5.96175 5.35396
1355 1 1 18.3854 5.73208 3.05691
1275 1 1 16.4937 4.77518 4.90872
560 1 1 0.442483 7.78845 3.5241
568 1 1 3.60398 7.7078 4.02053
2357 1 1 2.2167 5.59833 4.42458
808 1 1 0.429178 5.25012 6.28122
489 1 1 1.01241 6.68539 3.53048
239 1 1 4.936 3.21441 3.13016
936 1 1 4.27667 8.65665 6.76067
1299 1 1 6.24728 6.33723 4.59648
898 1 1 8.30326 4.48434 4.81778
1732 1 1 5.90904 7.56346 5.92972
932 1 1 8.13479 6.49218 1.68309
1333 1 1 9.34758 4.96003 1.65541
1381 1 1 8.02875 5.72474 3.94115
2126 1 1 9.52634 5.71234 4.05202
2103 1 1 10.192 4.42894 3.68449
1015 1 1 10.3903 4.67971 5.12697
7850 1 1 12.3341 6.08838 5.60843
862 1 1 12.6088 6.02378 2.2477
1354 1 1 13.2549 5.42333 5.87832
1463 1 1 10.8867 6.46261 5.07586
1438 1 1 13.6917 7.03009 5.23104
7714 1 1 12.708 7.28671 5.85855
2269 1 1 14.3773 6.76235 4.41704
1648 1 1 16.1461 6.67363 4.19292
1793 1 1 15.7018 7.93199 4.78671
1443 1 1 17.5602 8.20348 3.28727
1488 1 1 3.10256 7.32629 2.64828
1677 1 1 17.4121 6.47308 7.03125
927 1 1 2.98181 9.1309 5.16535
449 1 1 4.86919 7.80451 4.68996
90 1 1 2.55581 8.44618 3.88537
966 1 1 4.29226 6.83407 3.94348
1051 1 1 6.80616 6.38531 3.29877
7843 1 1 6.56758 8.02198 3.8923
571 1 1 5.46448 9.1012 2.09034
1466 1 1 9.07241 6.78192 4.17174
951 1 1 5.44636 6.25092 5.9883
7827 1 1 13.422 6.79348 2.49901
1378 1 1 8.82145 6.39511 3.17472
1019 1 1 10.3735 6.51174 6.0978
2094 1 1 11.2315 5.92456 6.78025
1387 1 1 10.7792 8.81795 4.53162
1036 1 1 15.3518 10.745 1.57264
1429 1 1 11.4955 6.5584 6.01401
1395 1 1 14.5298 8.1174 5.87168
2154 1 1 14.9569 9.22809 1.95111
1798 1 1 14.6798 7.84077 4.84786
134 1 1 14.8402 10.9364 5.34114
996 1 1 17.0512 8.79768 4.25247
1350 1 1 17.1815 9.12184 1.96023
311 1 1 17.3876 10.1324 1.48995
6867 1 1 0.790551 9.37897 4.79627
1365 1 1 1.56762 9.25111 3.71267
1850 1 1 3.1005 8.43517 6.6322
315 1 1 5.10883 10.5343 4.61678
358 1 1 5.63997 9.75058 4.28504
586 1 1 6.15927 10.6724 3.29894
7823 1 1 4.30745 7.44645 2.63694
1421 1 1 7.91297 8.37606 5.26024
208 1 1 6.46184 7.39744 4.64516
988 1 1 10.2368 8.59616 3.77647
2065 1 1 9.66721 8.05083 4.5097
649 1 1 12.2421 7.96158 4.25652
1390 1 1 10.6804 8.8195 6.33001
606 1 1 13.1974 7.65723 4.39941
1718 1 1 16.5119 9.68614 1.05836
108 1 1 15.1699 9.46019 3.06238
1714 1 1 13.6369 7.77895 6.29139
2645 1 1 14.2237 9.35532 5.71095
1353 1 1 16.2615 9.7824 4.18283
1396 1 1 16.4632 9.71057 2.53833
1556 1 1 15.4376 10.0802 5.09343
1403 1 1 18.1768 9.60156 5.44886
1521 1 1 0.843251 8.51914 8.41679
1001 1 1 3.4458 12.8837 3.61424
365 1 1 0.526443 10.3471 5.23203
2084 1 1 1.58954 10.5133 5.5578
7482 1 1 3.31034 11.1462 3.8508
573 1 1 6.23173 10.7782 2.14247
1050 1 1 8.15318 10.4591 6.33491
255 1 1 4.5854 14.3748 2.12637
694 1 1 10.0466 7.24914 5.08785
1695 1 1 10.3987 10.145 4.78777
1111 1 1 11.934 11.7835 6.55548
211 1 1 11.9199 10.4568 4.10655
1039 1 1 13.4757 8.81958 3.38812
303 1 1 11.83 11.0467 5.30596
136 1 1 11.828 10.7235 6.73086
78 1 1 16.7451 12.0256 0.201909
955 1 1 12.7115 11.2274 3.07535
7428 1 1 15.5377 10.0621 2.31539
914 1 1 14.1632 9.69269 4.60421
642 1 1 15.7175 11.1653 4.35811
757 1 1 17.3397 10.4136 3.55951
1475 1 1 18.1587 11.4029 5.36025
1878 1 1 18.4866 11.812 4.52582
557 1 1 18.163 9.53374 3.76335
125 1 1 2.63805 14.8078 2.45972
1163 1 1 2.70929 10.5485 4.56547
288 1 1 2.66195 12.0225 3.63012
7888 1 1 1.60467 14.1827 2.33396
1287 1 1 3.26285 10.4151 2.82677
1411 1 1 4.55055 12.9716 3.91391
621 1 1 4.04297 14.0624 4.37706
574 1 1 11.2683 11.0482 2.84761
1983 1 1 10.4427 10.4952 2.78405
277 1 1 9.67024 13.4867 2.67898
622 1 1 10.8128 13.7818 4.41701
2112 1 1 11.4414 11.3145 3.90854
667 1 1 16.3717 13.4572 1.97344
600 1 1 13.0402 10.7061 4.30673
991 1 1 13.5098 13.7675 3.90233
7907 1 1 12.6863 11.335 5.94786
6719 1 1 14.7667 14.1685 3.3948
240 1 1 15.0549 11.5689 3.29842
967 1 1 15.4952 12.7464 2.89231
968 1 1 15.514 14.1045 4.36795
1159 1 1 1.32184 11.8612 7.20872
251 1 1 17.5814 12.9529 2.88384
1450 1 1 3.7334 12.5672 2.68778
688 1 1 0.906047 14.492 4.56537
627 1 1 3.45881 14.5506 1.25741
2343 1 1 6.21664 13.1332 2.79977
7784 1 1 7.82083 13.2233 4.42978
213 1 1 9.28155 10.9829 3.23707
1939 1 1 10.4008 11.2912 3.45811
2017 1 1 9.50951 14.632 4.25643
628 1 1 12.2218 14.2992 2.87112
1432 1 1 12.5304 14.2992 4.45483
747 1 1 13.8761 11.5564 4.9201
1825 1 1 13.9411 12.6551 2.99744
1120 1 1 16.2778 14.8953 4.49636
1042 1 1 16.0578 13.8026 3.18193
597 1 1 16.5733 12.2348 1.72522
639 1 1 16.8098 12.5906 3.38848
282 1 1 1.61198 17.3272 3.3873
1487 1 1 0.929343 13.4574 5.08211
1550 1 1 3.64871 16.3045 3.63744
2367 1 1 0.407015 16.2501 1.64833
7900 1 1 0.520334 14.169 5.73373
350 1 1 3.69832 14.3973 2.30819
1217 1 1 6.77454 14.7726 3.43177
687 1 1 7.40561 15.6614 2.35253
7975 1 1 6.46364 16.2503 0.786442
1530 1 1 8.83189 16.2082 3.27279
1145 1 1 3.99018 15.2789 3.25039
7543 1 1 8.30165 12.4264 3.90206
253 1 1 8.71309 11.9505 2.97241
1527 1 1 8.40026 17.1886 5.07146
1579 1 1 9.42888 15.519 5.38554
1139 1 1 8.95005 15.1301 3.37199
317 1 1 11.5092 15.7441 3.36561
1906 1 1 10.743 13.774 2.88832
254 1 1 10.4255 16.9834 4.35942
7838 1 1 11.9421 16.3154 2.6073
269 1 1 14.5284 14.7609 4.96765
663 1 1 17.9911 15.8483 3.93393
629 1 1 17.5315 15.1384 2.94762
2037 1 1 18.1532 14.6504 2.25077
1046 1 1 16.7144 13.466 4.19325
724 1 1 1.47953 14.9299 3.62905
727 1 1 1.56121 16.4861 1.83829
1156 1 1 1.82874 15.6806 2.90629
1449 1 1 1.94544 16.8857 4.82746
1211 1 1 5.47504 16.6858 3.65606
682 1 1 2.90763 13.536 4.69609
1453 1 1 5.84683 17.1095 2.52074
693 1 1 4.1123 16.4875 2.6038
1134 1 1 7.77362 16.6599 2.76622
704 1 1 4.83376 14.7372 3.03056
7856 1 1 11.6292 0.432713 3.18016
7980 1 1 8.28001 16.9988 1.9792
19 1 1 10.9011 15.6254 4.30164
1184 1 1 11.0408 14.8549 3.00545
1151 1 1 12.411 15.1851 3.19498
7872 1 1 14.2604 14.956 1.60285
790 1 1 13.4786 15.5035 3.13679
823 1 1 11.894 15.9881 4.57092
798 1 1 13.0633 15.699 0.720053
234 1 1 16.3457 14.9156 2.96338