ITEM: TIMESTEP
4600
ITEM: NUMBER OF ATOMS
8000
ITEM: BOX BOUNDS pp pp pp
0.0000000000000000e+00 1.8820720577620570e+01
0.0000000000000000e+00 1.8820720577620570e+01
0.0000000000000000e+00 3.7641441155241139e+01
ITEM: ATOMS id mass type x y z
7265 1 1 1.63502 17.3375 1.42453
2134 1 1 2.13093 17.1239 37.115
7560 1 1 0.828822 3.40468 37.2599
6076 1 1 7.24318 0.413822 0.916254
2026 1 1 5.34468 0.764591 1.06189
605 1 1 7.28533 0.757518 2.04619
6017 1 1 8.72029 0.752031 1.80785
6703 1 1 10.1413 1.82962 0.793019
6509 1 1 9.58568 17.2155 0.0394149
7821 1 1 13.0521 0.326393 36.8733
382 1 1 13.596 1.58164 36.8602
7938 1 1 14.3929 2.99912 2.1347
742 1 1 13.4275 1.41613 3.99741
1269 1 1 15.0424 1.95141 2.21493
7293 1 1 18.6786 1.72501 0.212661
7690 1 1 0.818606 1.83525 0.587739
7261 1 1 2.76665 18.7236 0.874853
7604 1 1 1.87965 0.326782 0.563032
6995 1 1 2.60594 1.99665 1.92566
402 1 1 5.05228 3.3979 0.208807
816 1 1 2.02913 2.09401 0.44546
6459 1 1 2.86892 18.2686 37.3265
7585 1 1 2.43557 0.614306 1.99288
3 1 1 5.10914 3.07749 2.52211
497 1 1 6.29028 1.99546 2.6862
1168 1 1 5.94027 1.32958 1.84135
7725 1 1 9.97175 1.90653 37.2927
89 1 1 8.45255 0.503267 0.842155
7994 1 1 10.1464 0.395848 36.5131
1333 1 1 13.9302 3.293 1.08977
1037 1 1 14.7264 2.43849 37.2965
7471 1 1 15.2292 1.10283 1.4883
1540 1 1 16.0712 3.23433 36.9686
1713 1 1 0.0358597 3.45247 0.884694
6152 1 1 1.22245 5.07895 3.80652
1239 1 1 18.7072 4.32598 2.86688
7091 1 1 2.37264 2.83866 37.5915
7456 1 1 4.00725 2.26894 0.965905
802 1 1 3.7324 4.65607 0.8847
7653 1 1 5.03214 3.53813 1.42674
7300 1 1 6.03976 3.68448 4.64073
7667 1 1 4.96299 2.35588 0.535596
7919 1 1 8.95401 0.534772 35.7907
633 1 1 6.9674 1.67428 1.63166
529 1 1 11.1216 1.85804 36.6218
7010 1 1 12.6237 2.99659 1.37687
1380 1 1 13.6966 4.87057 0.89239
446 1 1 12.8101 1.76967 1.51635
434 1 1 13.3786 3.43059 36.64
7432 1 1 17.3123 6.19649 2.65094
7636 1 1 14.0167 4.21393 1.72806
2160 1 1 15.7609 4.64207 1.39668
5397 1 1 18.6754 6.06072 37.1329
6199 1 1 16.0047 3.56768 0.257151
68 1 1 0.0739632 4.30456 37.2437
924 1 1 1.9388 6.65274 0.138512
1237 1 1 2.69211 4.01234 3.33595
7366 1 1 2.36496 6.9033 4.35852
72 1 1 18.3753 6.87129 1.63229
489 1 1 1.67462 3.96018 2.33708
1885 1 1 3.52967 6.48867 33.9414
568 1 1 5.30566 6.21984 0.603407
323 1 1 6.96766 4.73974 0.170546
796 1 1 7.05793 6.65188 0.261448
1369 1 1 10.91 6.83858 2.6885
1045 1 1 7.55385 5.49173 37.1373
6691 1 1 9.94081 3.32212 37.4542
2232 1 1 12.7876 5.78771 37.3434
502 1 1 13.9924 3.96319 35.4712
7866 1 1 10.6401 7.54226 36.86
1329 1 1 14.4861 5.34222 1.40912
1109 1 1 12.4387 5.53559 0.846543
7796 1 1 12.7899 4.58237 36.9195
6828 1 1 14.3051 5.26012 35.4904
7972 1 1 16.8165 6.50936 36.6942
75 1 1 18.1976 5.72519 2.09577
2357 1 1 17.6155 7.0904 2.16607
6561 1 1 18.1742 8.06045 1.79623
7944 1 1 3.45635 6.50919 4.02253
15 1 1 4.54647 5.18653 0.887489
7322 1 1 5.12708 8.41473 2.02933
7699 1 1 6.05998 5.15292 0.550953
7663 1 1 7.82076 6.32277 1.45184
5747 1 1 8.23541 4.38693 36.7796
7924 1 1 6.92102 7.07738 2.54933
6538 1 1 9.99621 7.57129 0.752704
5690 1 1 11.0017 8.96383 1.80313
378 1 1 9.88329 8.18091 2.09307
7427 1 1 11.7243 4.39691 1.58252
7937 1 1 15.6256 4.82932 0.0605185
5812 1 1 12.843 7.95519 0.844158
7641 1 1 15.823 5.95937 1.55414
107 1 1 15.1484 7.06741 36.8532
657 1 1 17.3562 6.97225 37.5629
7351 1 1 0.268682 8.44282 1.9758
7544 1 1 16.4738 7.02141 1.72558
7841 1 1 0.484639 6.10634 4.23796
1314 1 1 1.41018 8.01347 2.57128
6874 1 1 5.46288 9.79716 0.263097
626 1 1 2.00314 9.23291 1.70871
997 1 1 2.86189 6.42149 0.767599
175 1 1 2.2853 2.79646 2.43921
6987 1 1 2.76787 8.12025 37.3206
7803 1 1 5.42783 6.95164 1.7586
1850 1 1 5.74749 6.05417 36.2119
7643 1 1 8.21484 9.31052 0.436443
6477 1 1 7.78505 8.31462 0.849121
7748 1 1 9.02043 7.40357 2.25063
6136 1 1 8.41358 7.94447 0.0919504
7301 1 1 14.1926 4.15097 36.6775
181 1 1 13.1489 6.6844 -0.00628778
461 1 1 11.9852 8.31908 1.74006
7983 1 1 13.9981 10.0193 2.2518
230 1 1 16.1486 6.77963 37.3489
186 1 1 17.7176 7.57919 0.848638
444 1 1 18.547 6.37482 0.792112
550 1 1 15.4642 8.49038 35.222
7795 1 1 1.54994 7.01983 2.76552
7451 1 1 18.3622 10.0558 1.8473
2320 1 1 17.8461 9.09615 1.58016
222 1 1 5.20169 7.96299 0.321878
138 1 1 5.44765 10.9051 36.1068
331 1 1 6.44382 8.06469 0.903742
530 1 1 7.83946 7.75153 35.3815
1450 1 1 5.74549 7.22602 35.5656
7335 1 1 9.8492 9.08904 1.40092
53 1 1 9.13118 9.78394 0.499003
7891 1 1 8.56805 10.9622 0.289939
6669 1 1 11.0171 7.79384 0.350365
1790 1 1 9.37945 8.62888 0.33074
7826 1 1 15.1595 11.4112 37.6007
7932 1 1 12.552 8.4145 37.0237
6997 1 1 16.4228 8.65714 0.464567
1359 1 1 14.267 6.7946 37.4092
6705 1 1 14.5509 7.61727 0.431446
84 1 1 0.275348 10.1938 1.18888
200 1 1 2.74977 11.3152 0.63169
7011 1 1 3.02867 8.66508 0.860198
7897 1 1 3.90842 10.7288 36.0252
453 1 1 8.27179 11.2817 1.80489
1512 1 1 7.58371 12.8013 36.0892
1217 1 1 7.50461 10.6274 2.62804
1906 1 1 11.668 8.10955 2.7811
6896 1 1 10.1241 10.18 0.922893
7457 1 1 11.6253 11.474 0.649701
6699 1 1 12.4983 11.9791 2.34399
1193 1 1 13.8705 8.68942 0.715644
7512 1 1 15.8478 10.9117 1.58589
7022 1 1 0.244926 9.82954 37.4945
769 1 1 17.382 10.5097 1.33897
7397 1 1 15.9311 9.37418 37.1782
1120 1 1 16.9293 10.97 0.264955
1036 1 1 17.8791 9.06367 0.257024
7189 1 1 17.8719 12.7647 36.6077
7927 1 1 1.64324 11.8931 3.03458
215 1 1 6.17829 11.5098 36.5607
6578 1 1 3.65895 10.8729 0.363001
1211 1 1 5.39809 10.9059 0.989795
2373 1 1 6.7609 15.5082 0.614731
691 1 1 9.31048 11.4812 2.00384
7004 1 1 9.02778 12.7385 1.6581
255 1 1 7.50299 13.2528 1.11223
993 1 1 9.26568 13.3124 37.3081
765 1 1 7.28592 10.3013 1.76878
99 1 1 10.5926 11.455 36.133
1017 1 1 11.1656 12.5799 3.11735
6864 1 1 10.8499 12.4234 37.3255
296 1 1 13.3685 11.2427 1.64837
7452 1 1 14.1936 12.1078 36.7877
7075 1 1 14.1738 13.6814 0.334122
2017 1 1 14.4278 10.8039 1.51287
57 1 1 16.1334 13.3703 1.07652
973 1 1 16.1213 12.6493 1.83213
7772 1 1 18.4904 14.2303 2.87863
693 1 1 15.8608 12.5604 37.3929
1116 1 1 1.56179 13.6222 2.77799
1282 1 1 1.7438 13.6979 0.978237
559 1 1 0.882158 12.9758 1.27992
203 1 1 4.31574 14.8501 0.582537
7139 1 1 5.20061 15.4935 1.51918
813 1 1 5.29933 14.4295 37.2827
863 1 1 4.31925 11.0865 3.70618
17 1 1 6.55628 11.9557 37.5024
8 1 1 6.65323 14.5894 36.9358
7610 1 1 7.73084 14.3449 1.11645
6590 1 1 10.3195 12.9084 3.88395
738 1 1 9.92832 13.1212 2.78795
1081 1 1 9.64186 13.7638 36.4862
7489 1 1 12.3691 13.742 2.52516
6634 1 1 11.7679 10.1366 35.6045
7704 1 1 12.0259 14.7296 36.8179
7635 1 1 13.9862 11.9904 1.42638
7853 1 1 14.8509 15.6932 1.1807
6788 1 1 17.7509 10.3345 0.299974
7888 1 1 17.4781 14.8871 0.0888206
113 1 1 0.416652 13.975 36.9127
1928 1 1 0.660715 15.513 0.533902
5597 1 1 18.7482 16.4247 37.2213
1529 1 1 3.01676 13.6133 0.940896
311 1 1 2.54314 16.7651 0.988831
6321 1 1 4.35579 14.6656 1.50438
1082 1 1 2.26651 15.0098 2.65488
6379 1 1 6.27293 15.5106 1.5502
1729 1 1 5.40587 15.3111 0.219313
734 1 1 6.1973 14.5094 2.65611
67 1 1 8.47814 13.7372 1.35224
7206 1 1 8.02886 15.4773 0.291787
660 1 1 12.271 14.7482 1.02153
586 1 1 11.3903 13.9196 0.025623
377 1 1 11.8497 15.4691 0.425348
1143 1 1 12.9743 15.8183 1.67956
740 1 1 12.8021 14.6592 37.5848
7834 1 1 13.608 14.307 2.02429
6399 1 1 14.747 12.7707 36.0925
6723 1 1 14.9619 18.3391 0.909182
237 1 1 14.4685 14.3734 1.45033
465 1 1 16.3753 15.1357 0.486866
129 1 1 17.1461 15.8762 2.3767
7483 1 1 17.5434 13.5419 37.3866
1192 1 1 0.99097 17.1669 37.5557
7525 1 1 17.7656 16.8434 0.0593825
192 1 1 0.919956 16.617 36.4868
795 1 1 3.17925 15.1705 2.07147
1446 1 1 4.70917 17.6995 1.11574
7543 1 1 8.72351 15.7983 3.37266
7767 1 1 5.13306 16.6907 0.818829
749 1 1 7.39358 16.0759 1.50084
7678 1 1 7.49712 17.1674 1.31561
419 1 1 7.13217 15.7264 37.3256
1064 1 1 10.9557 17.5373 34.8219
38 1 1 9.36586 14.7426 0.44574
7779 1 1 10.9982 16.4853 0.84834
7508 1 1 11.9703 17.3141 37.2961
6636 1 1 13.4957 18.3329 1.40851
1584 1 1 13.1734 15.8575 36.6734
1134 1 1 11.7072 16.2078 1.64742
501 1 1 13.2832 14.1965 0.856436
3499 1 1 16.7529 0.914863 1.80428
2038 1 1 14.8478 16.0477 2.41545
7390 1 1 15.2144 17.3058 36.69
7787 1 1 17.4017 15.3733 1.20811
5999 1 1 18.816 16.9974 0.872534
314 1 1 17.9526 0.418939 2.59857
1569 1 1 1.26582 17.9292 0.757754
7210 1 1 3.61517 18.6668 0.374951
1257 1 1 6.07309 0.0171705 0.512255
1895 1 1 7.22702 18.1608 0.80872
43 1 1 6.9398 18.3054 36.7462
292 1 1 6.17191 18.6636 1.95174
287 1 1 5.63103 0.617972 37.1115
55 1 1 8.90589 17.5939 2.35013
6822 1 1 7.62365 16.4897 37.6278
496 1 1 9.59126 17.9095 1.14838
224 1 1 10.1321 18.5278 37.3361
7713 1 1 11.3597 18.1629 0.290186
343 1 1 12.8934 16.9912 1.10954
2661 1 1 13.3759 16.8114 0.0781764
31 1 1 13.6162 0.742333 1.0255
7149 1 1 13.5308 16.672 1.8574
1110 1 1 14.0436 17.8938 0.412202
1785 1 1 14.5391 18.1055 1.95138
843 1 1 14.9739 15.8565 36.706
847 1 1 1.13454 17.3288 3.15096
47 1 1 1.36253 2.58883 2.50954
7647 1 1 0.0316407 0.75706 2.57505
399 1 1 4.35858 18.6887 2.79197
1327 1 1 3.06445 18.3606 2.98434
860 1 1 4.04693 0.0806666 3.72226
487 1 1 5.24787 18.4646 2.08598
480 1 1 5.50902 0.454753 3.93108
450 1 1 9.53514 18.6984 1.97165
7996 1 1 7.3202 18.2757 2.81194
6851 1 1 8.65866 15.1029 1.39187
1658 1 1 10.0496 1.01032 3.71373
887 1 1 11.8762 17.2849 0.760101
543 1 1 11.1172 0.736887 1.56613
1344 1 1 15.8742 18.7977 1.72833
576 1 1 18.7587 1.87098 2.36871
7930 1 1 14.1815 2.08926 0.445743
745 1 1 0.50924 0.711575 0.664089
328 1 1 0.567069 18.4058 37.5372
762 1 1 18.5891 4.28496 1.79235
115 1 1 1.56156 1.92277 1.45177
445 1 1 3.50215 0.690756 1.61775
7284 1 1 3.873 2.75698 2.14816
2046 1 1 3.93202 1.87974 3.41887
611 1 1 3.05277 2.80566 4.39037
6986 1 1 6.88752 1.91044 4.44521
7215 1 1 7.14702 2.48316 3.22303
566 1 1 6.01317 3.37105 2.17486
7785 1 1 10.027 1.46782 2.1348
505 1 1 11.7418 1.36775 0.789878
385 1 1 10.3217 2.43585 1.68339
1213 1 1 12.9648 2.11295 2.69392
7844 1 1 16.7196 3.95749 0.759257
1670 1 1 14.3597 4.3875 2.71715
511 1 1 16.3304 3.13744 1.33047
1634 1 1 1.48433 1.79317 3.0934
7440 1 1 17.9683 1.44261 1.58764
7669 1 1 15.2147 3.27887 0.996532
1231 1 1 0.681458 2.43377 1.77141
966 1 1 0.795241 3.38896 2.51313
6882 1 1 4.61037 3.84528 3.17643
479 1 1 5.78423 3.59131 3.30818
318 1 1 2.66733 0.928065 1.00511
7251 1 1 4.18823 3.66464 0.937028
1331 1 1 5.87367 2.58283 3.3003
527 1 1 6.63017 4.82433 2.38284
7532 1 1 7.38218 3.53339 1.28765
6767 1 1 7.38061 4.71215 3.08032
6659 1 1 8.52995 2.31832 0.972127
2348 1 1 8.12689 4.20428 0.992099
886 1 1 8.69054 3.38813 2.67798
91 1 1 10.2091 3.52964 2.08681
1004 1 1 10.9358 3.3961 37.4892
7246 1 1 15.8572 3.43492 2.29738
581 1 1 12.9379 3.88489 2.84765
1473 1 1 15.0789 4.83506 2.18335
18 1 1 17.0631 3.16208 37.5836
537 1 1 13.4177 3.74906 4.224
6648 1 1 18.0595 3.3905 0.227303
35 1 1 17.3412 4.89833 1.20669
1265 1 1 18.5708 3.26179 3.55766
7966 1 1 1.44061 6.15196 1.7316
406 1 1 2.66987 4.36045 4.4006
835 1 1 4.40662 4.35239 1.81944
1287 1 1 2.76677 5.62131 4.35368
548 1 1 7.05304 5.42091 0.987425
5739 1 1 9.40848 4.02353 3.12281
1466 1 1 7.90206 6.03444 2.52466
661 1 1 7.71658 3.72196 3.24895
464 1 1 8.14258 3.97181 2.07978
1379 1 1 7.35441 5.77081 3.8499
7611 1 1 12.5777 6.53194 1.79911
7666 1 1 11.0683 3.51279 1.54423
6541 1 1 12.7762 4.61848 1.93137
7468 1 1 14.6897 5.71543 2.87075
2432 1 1 15.462 5.36676 4.13369
6762 1 1 1.22478 4.78421 37.3188
1983 1 1 16.4939 5.22334 2.26857
651 1 1 15.9461 4.33906 2.51308
2110 1 1 17.7551 9.24621 3.29004
206 1 1 0.436354 7.46763 2.03172
1766 1 1 1.995 4.87334 1.97803
1158 1 1 3.39387 5.51689 3.42178
7879 1 1 6.19559 5.67022 1.66429
158 1 1 3.8401 6.82369 2.05585
585 1 1 8.2854 4.88894 3.56034
623 1 1 10.4108 4.95673 0.924294
7096 1 1 9.77224 5.64769 0.268366
2103 1 1 10.7729 7.28247 3.61608
934 1 1 10.2253 4.76075 2.1755
7904 1 1 9.0445 5.65265 2.14194
1833 1 1 14.9256 6.46793 2.15289
6316 1 1 13.9104 5.50669 3.71182
7758 1 1 15.8308 4.45312 3.52638
431 1 1 12.5032 6.96941 4.29937
7679 1 1 16.7031 4.56393 37.5822
34 1 1 0.261432 5.04811 1.11991
190 1 1 0.644338 6.37779 2.3942
1318 1 1 2.05284 8.33652 1.04481
1113 1 1 1.16589 8.95224 3.55388
408 1 1 4.76069 9.46757 3.75804
565 1 1 18.7049 7.44327 0.901253
7683 1 1 2.34941 8.18405 3.10412
532 1 1 6.97364 9.78114 0.30346
7921 1 1 7.21454 7.51889 1.65072
7862 1 1 6.27805 7.67878 2.05176
570 1 1 9.52918 7.29181 3.41227
7002 1 1 11.6255 9.91194 1.45208
697 1 1 8.2954 5.31123 1.17985
7422 1 1 9.94499 6.50532 2.62141
1330 1 1 11.2242 6.00724 3.34737
193 1 1 12.0165 6.68054 0.756508
1262 1 1 12.8462 5.06512 3.4177
498 1 1 15.185 7.24329 1.19914
271 1 1 14.9752 4.136 0.460615
1000 1 1 16.6047 7.16333 3.06176
6675 1 1 16.4403 7.337 4.4849
6875 1 1 17.1541 7.94777 2.10588
996 1 1 2.41493 11.0839 5.21818
1105 1 1 2.94635 9.73026 4.14828
289 1 1 2.72721 10.1606 0.77781
7967 1 1 2.71723 7.36853 0.955552
7248 1 1 3.58402 10.2799 5.22042
1093 1 1 3.39995 10.4395 1.60766
627 1 1 7.2539 11.2505 1.02534
541 1 1 6.09819 8.75331 1.77884
2065 1 1 8.00799 9.39645 4.60678
1648 1 1 7.52227 9.1233 3.41678
7953 1 1 12.0936 8.29193 4.29659
955 1 1 10.7267 10.3906 1.72043
615 1 1 9.39225 6.80377 1.24901
188 1 1 12.643 7.8346 2.40667
276 1 1 14.6382 8.14108 1.3176
676 1 1 14.8165 9.07452 3.13897
223 1 1 16.2889 8.013 1.32957
960 1 1 14.5898 9.29791 1.31324
1863 1 1 1.14285 11.0223 3.82558
536 1 1 18.5704 11.0042 0.791455
1870 1 1 18.5373 9.73063 2.79213
1728 1 1 1.72423 9.82176 2.80574
7845 1 1 1.46919 10.7948 2.3522
7474 1 1 0.245941 12.1679 1.61111
590 1 1 2.99923 10.7037 6.55749
715 1 1 2.77091 10.9768 4.14476
7326 1 1 3.71418 8.51797 2.5147
7576 1 1 7.23507 12.0078 36.7515
925 1 1 4.29285 8.82938 1.29853
970 1 1 4.99886 8.95347 2.73418
825 1 1 8.17904 9.9364 3.2852
2418 1 1 4.81307 10.5044 37.2609
7531 1 1 10.1574 9.33176 3.33462
699 1 1 10.3158 13.0462 0.58451
1784 1 1 8.9712 9.38552 5.14161
7538 1 1 10.9034 11.1323 3.50652
7536 1 1 11.1187 10.6751 0.744483
610 1 1 11.96 11.2297 3.51427
7851 1 1 13.7333 9.74639 1.34052
1533 1 1 15.7464 10.6776 2.59472
433 1 1 12.0954 10.8951 2.20692
285 1 1 14.229 10.7769 4.52953
146 1 1 18.3974 10.7811 2.60257
7480 1 1 17.1818 10.6987 4.48632
1637 1 1 0.768443 9.33947 1.32179
967 1 1 0.275565 12.3359 3.66752
7249 1 1 3.8188 11.8702 2.60968
647 1 1 5.43279 12.873 1.16604
7482 1 1 2.35582 11.7688 2.26018
7376 1 1 4.03645 13.0569 2.86369
1163 1 1 5.42616 13.0575 2.67449
1417 1 1 5.1751 9.57577 4.97102
374 1 1 6.43802 8.38214 2.79336
277 1 1 8.85849 12.4534 2.61042
64 1 1 8.63502 12.3713 3.69287
1908 1 1 9.41038 14.4862 1.5427
1542 1 1 10.2468 11.8493 0.521268
7545 1 1 12.1377 12.4436 3.23107
6832 1 1 13.7884 12.6 0.623397
574 1 1 13.815 12.5576 2.54526
234 1 1 16.5698 10.083 1.99907
683 1 1 15.2981 11.4607 2.96258
7867 1 1 17.5793 12.7612 2.15694
300 1 1 18.1053 10.1171 4.03156
757 1 1 2.98486 14.0474 1.93491
688 1 1 4.93026 12.0983 2.12965
8000 1 1 4.43125 12.6287 1.43451
1561 1 1 3.99736 15.12 3.58881
7403 1 1 6.51069 14.4192 3.5797
1210 1 1 7.10882 13.5783 2.0321
815 1 1 5.07551 15.3522 3.5723
227 1 1 10.5849 15.7163 1.38266
872 1 1 10.7546 15.1249 2.86095
7990 1 1 11.2755 13.5514 3.52557
6750 1 1 14.8426 12.3009 2.48893
6824 1 1 14.87 12.5825 0.508741
6720 1 1 0.77276 14.2632 3.32563
7350 1 1 1.01299 12.5764 2.47698
7849 1 1 18.7282 16.5858 1.9201
643 1 1 2.39345 17.8641 3.7102
2837 1 1 0.935369 15.0399 4.20305
7561 1 1 3.02476 15.733 4.24572
1638 1 1 3.10168 15.9197 2.74722
1531 1 1 1.6893 14.702 3.62812
154 1 1 4.06943 15.706 1.50105
584 1 1 4.28513 14.0172 2.97778
1047 1 1 6.00067 16.7921 4.65026
1178 1 1 9.61457 13.8015 0.605791
286 1 1 11.6296 13.3767 1.97671
823 1 1 7.90034 13.2178 2.93779
1170 1 1 10.7795 15.3554 0.0472138
1706 1 1 14.2366 11.8891 3.30366
423 1 1 12.7557 13.339 1.30067
22 1 1 12.0037 15.1684 1.94895
2345 1 1 14.3403 14.9747 2.33492
1042 1 1 15.9911 15.3052 1.49886
6535 1 1 13.8822 14.3349 37.064
425 1 1 15.5214 14.2785 0.941423
375 1 1 16.7953 14.91 2.69093
6905 1 1 16.0643 13.6392 37.5186
1567 1 1 17.6318 14.2589 2.53904
163 1 1 18.3036 14.3993 1.81296
7811 1 1 18.059 15.5374 2.02671
6592 1 1 17.8668 17.1074 36.6572
2367 1 1 17.6397 16.7549 2.19113
7999 1 1 18.1871 15.733 0.628944
608 1 1 0.740253 16.2649 2.55833
1146 1 1 2.03633 16.8489 3.74387
682 1 1 2.38274 15.9801 3.48162
1140 1 1 2.28275 17.6106 0.444138
834 1 1 3.89678 16.6023 3.15034
1453 1 1 3.59449 17.718 1.33039
7180 1 1 6.11154 16.3854 0.551055
1328 1 1 4.8532 16.6106 1.84104
7926 1 1 5.25935 15.8882 2.57365
7698 1 1 6.5589 17.5956 2.7685
141 1 1 9.01973 16.6897 3.91532
7700 1 1 9.56677 15.3851 2.03494
6027 1 1 9.6423 16.9581 1.88035
1133 1 1 9.96553 16.3126 4.5943
726 1 1 12.6035 17.1682 2.08112
7987 1 1 12.4501 17.9944 1.30412
1590 1 1 14.1701 16.1155 4.21
1200 1 1 15.3206 17.9057 2.62239
7163 1 1 14.7648 16.8138 3.16202
7188 1 1 18.0342 18.3934 3.02601
7968 1 1 2.00086 18.4459 2.10054
7887 1 1 1.98205 17.5468 2.56821
7581 1 1 6.43185 17.516 0.937264
1094 1 1 3.12927 16.9182 3.92025
7119 1 1 3.99873 17.6466 3.21801
2824 1 1 5.26321 1.68669 2.58078
7503 1 1 6.37059 0.580721 1.2825
1582 1 1 9.04322 16.2218 2.46866
841 1 1 8.26892 16.6873 1.79707
814 1 1 9.63646 16.7533 0.880644
7588 1 1 10.6564 0.307888 2.37224
708 1 1 10.7234 17.3755 1.42799
7745 1 1 11.4037 18.5571 1.74414
2020 1 1 10.1223 0.362632 1.26907
421 1 1 13.6762 17.9791 4.21958
788 1 1 16.8976 18.2698 2.25664
33 1 1 16.0833 17.0937 0.307458
525 1 1 16.6698 18.5121 36.613
7903 1 1 18.332 1.3408 3.18919
310 1 1 18.6555 1.86652 4.48725
552 1 1 1.16076 18.2236 3.74161
915 1 1 1.61421 18.6766 4.53166
7123 1 1 6.38646 0.733303 2.64361
293 1 1 6.99811 0.803464 4.10098
1488 1 1 5.87256 17.4392 3.611
96 1 1 8.39961 2.47519 3.19626
7535 1 1 8.45298 18.6945 2.7811
1339 1 1 10.4007 17.9973 2.59629
7619 1 1 8.21252 17.8557 3.60129
239 1 1 9.95042 17.3025 4.76846
7616 1 1 8.34741 18.2429 1.00635
700 1 1 12.3487 18.6896 3.43324
7478 1 1 14.2386 0.399099 1.78613
6673 1 1 13.5768 18.1257 2.44172
7155 1 1 12.262 1.7453 4.55792
1992 1 1 14.0507 0.272302 4.61893
671 1 1 12.5151 1.17168 2.81532
383 1 1 13.6981 0.977571 2.94774
1229 1 1 15.1235 3.35017 5.24007
7914 1 1 17.3918 1.33775 3.83986
7549 1 1 17.2348 1.6357 2.39674
1020 1 1 14.7088 2.40411 3.30671
558 1 1 17.0466 0.427481 4.28638
1223 1 1 16.957 18.0363 5.88779
727 1 1 3.15222 1.09728 4.06008
1373 1 1 0.697554 0.981962 4.3327
7754 1 1 4.29349 18.7496 1.24995
2126 1 1 6.85566 2.62952 2.09764
593 1 1 9.18568 1.04322 2.77093
528 1 1 11.04 2.25 3.1945
7287 1 1 13.7266 18.6414 3.439
180 1 1 12.2099 0.52251 4.2498
906 1 1 14.9659 1.42193 3.99821
636 1 1 14.4775 3.03082 4.01859
874 1 1 16.1006 3.01411 3.72143
6975 1 1 0.872439 4.22653 3.37587
1202 1 1 3.60098 4.00539 4.78925
2365 1 1 4.1073 3.144 5.76425
936 1 1 3.55637 1.13096 2.64192
1376 1 1 5.06651 3.34731 4.19097
7648 1 1 7.59247 2.10057 5.60804
1378 1 1 7.98531 3.147 4.15904
1309 1 1 6.64683 2.95197 4.06802
890 1 1 8.92398 4.88908 4.24491
1416 1 1 7.59996 2.47819 1.4199
173 1 1 11.3294 1.46412 2.57792
7250 1 1 13.5314 2.97881 2.93908
1826 1 1 12.903 4.36474 4.95826
1336 1 1 15.2031 3.80367 4.25543
7776 1 1 14.7254 4.56161 3.77797
1672 1 1 16.2385 2.46945 5.09455
148 1 1 17.7703 3.41452 2.27864
1718 1 1 1.50047 0.620436 3.44868
7122 1 1 2.57614 2.11046 3.87357
7950 1 1 17.8561 4.67526 3.46011
62 1 1 2.37429 2.96651 5.05946
580 1 1 5.11392 5.00129 2.78853
1409 1 1 4.42433 4.67218 3.73578
358 1 1 5.07238 3.42717 5.27448
440 1 1 6.28128 5.81012 4.01754
1809 1 1 8.07484 4.9827 4.72655
488 1 1 8.90202 6.04669 3.96855
1076 1 1 8.29146 4.98078 2.34913
469 1 1 9.40259 5.27989 3.16736
140 1 1 10.714 4.7217 3.12693
2736 1 1 11.2842 4.33358 4.04476
7625 1 1 9.31323 4.51165 1.59319
1377 1 1 13.6094 5.34673 2.7159
2305 1 1 11.588 2.64011 1.72875
958 1 1 12.8267 6.34072 5.68357
850 1 1 11.8561 4.76171 5.09746
1438 1 1 14.4516 6.24744 4.28913
1348 1 1 16.6874 3.89269 3.187
2071 1 1 18.459 4.74441 6.44612
913 1 1 1.0017 4.91008 4.92779
481 1 1 18.5877 5.39498 3.95784
928 1 1 4.49558 4.83689 5.30953
98 1 1 1.64 5.72409 4.7074
983 1 1 3.74994 7.02107 3.03311
114 1 1 4.26838 8.14747 3.47433
1427 1 1 4.73399 7.34138 3.90813
7718 1 1 5.48989 4.38089 2.12063
1052 1 1 7.00836 5.76756 4.81409
7138 1 1 9.10865 6.34355 3.05606
7823 1 1 7.8874 6.50437 4.26533
1051 1 1 8.53429 7.9928 3.35146
153 1 1 10.2829 5.59324 3.76932
557 1 1 10.0595 7.63846 4.32077
1759 1 1 12.0946 5.57382 2.48166
1070 1 1 14.9769 6.28656 5.24674
387 1 1 11.3578 3.93691 2.41513
7273 1 1 15.1633 7.48554 2.25919
2197 1 1 14.1442 7.6234 2.35
470 1 1 12.8145 8.17846 5.39823
1925 1 1 15.7768 7.7353 5.04508
602 1 1 17.204 6.12417 4.35759
1939 1 1 16.3045 7.49236 6.62708
7444 1 1 14.0697 8.30837 3.40062
1275 1 1 18.2765 8.13344 5.5964
144 1 1 15.7461 5.53802 3.07177
1793 1 1 18.3423 8.28021 4.49675
1709 1 1 17.7792 7.32544 4.69386
959 1 1 2.53202 9.29103 3.16644
1596 1 1 2.83122 6.58013 1.88027
7395 1 1 2.25293 7.25892 5.45347
403 1 1 1.79004 8.03293 5.96635
1475 1 1 7.52111 8.68475 2.11785
1883 1 1 5.24129 5.65213 1.99243
7659 1 1 2.79462 6.78756 2.8775
45 1 1 7.63794 10.2718 4.90491
1177 1 1 5.65217 6.07266 3.04419
7701 1 1 4.18292 10.3232 4.28594
1301 1 1 6.96182 9.45293 1.58378
1008 1 1 10.1157 11.4592 4.16264
980 1 1 9.67706 6.14387 4.78499
7654 1 1 11.9389 6.04042 4.61205
519 1 1 10.8854 8.63298 5.4134
1478 1 1 15.97 9.59472 2.89321
1441 1 1 13.8173 7.0099 0.748626
736 1 1 16.8227 8.98411 1.28346
1631 1 1 18.3013 6.43067 4.00647
1715 1 1 17.8656 7.59194 3.53377
628 1 1 15.3278 6.99609 5.74526
1942 1 1 0.480548 6.81919 3.38125
2239 1 1 0.503248 8.97558 4.50813
1917 1 1 2.82828 9.78341 2.21016
2084 1 1 2.65089 9.72299 6.32032
7791 1 1 3.93726 9.52088 2.06239
1003 1 1 3.98914 11.1087 5.94622
344 1 1 5.72249 9.99678 1.91839
345 1 1 8.77594 10.0491 4.4862
1001 1 1 8.00929 11.5716 5.29743
1649 1 1 9.58909 8.44768 4.85785
7461 1 1 9.37172 9.14238 2.38797
231 1 1 10.72 7.2122 5.04932
241 1 1 9.59449 10.1089 2.29665
944 1 1 14.1364 7.82284 5.41357
1422 1 1 16.3506 8.49419 2.62909
108 1 1 15.8284 9.51194 0.805563
1350 1 1 0.137421 9.38887 3.56467
6972 1 1 0.947981 11.5679 4.79471
667 1 1 1.57812 9.10127 4.8865
7603 1 1 1.9154 9.87742 3.87692
1878 1 1 2.7162 12.2282 4.81627
7805 1 1 3.69056 10.0327 2.88611
6683 1 1 7.69753 12.3165 3.39865
639 1 1 4.48495 10.9392 2.03073
478 1 1 6.92177 9.85261 3.77875
290 1 1 6.65994 9.69576 2.49274
3250 1 1 8.60888 8.81571 1.4609
1069 1 1 9.35084 8.37316 3.79746
1530 1 1 8.25174 13.3718 4.19761
1825 1 1 9.43596 12.4351 4.20065
136 1 1 11.7798 11.7337 6.79257
1175 1 1 11.9905 11.4611 4.48041
2062 1 1 10.3614 10.068 4.01128
1460 1 1 13.1061 10.3837 4.47926
638 1 1 15.2097 10.3903 4.723
1537 1 1 13.6392 10.6732 3.58858
1183 1 1 15.6729 9.14765 1.9141
1189 1 1 14.8705 10.1201 3.05806
790 1 1 17.8833 10.2592 5.32636
1965 1 1 17.2913 11.8158 4.62141
877 1 1 0.273106 11.3783 3.16288
1968 1 1 1.79125 12.0126 4.05984
6563 1 1 2.54888 13.1355 2.62121
1128 1 1 5.18685 14.4858 2.19634
1445 1 1 1.21353 14.9538 1.54464
2748 1 1 3.79546 13.4328 4.26737
1486 1 1 3.9278 13.5037 1.82481
365 1 1 5.15064 10.3463 3.09595
684 1 1 6.53556 13.3279 2.87962
1046 1 1 8.66826 10.891 3.20414
1224 1 1 11.2508 11.4549 1.63274
1103 1 1 10.9685 12.5428 1.76451
1357 1 1 11.4505 11.0275 5.64738
1112 1 1 13.0378 11.4051 4.65256
386 1 1 13.0301 11.9293 3.33658
7858 1 1 15.4038 12.6332 3.88323
6599 1 1 15.1008 13.4936 3.0942
1107 1 1 13.8304 12.7336 3.58922
235 1 1 15.6732 9.77404 3.8955
7052 1 1 17.3616 13.3574 1.35805
7993 1 1 14.9232 12.6836 5.03291
265 1 1 16.9182 11.2633 5.48878
1005 1 1 1.48818 11.7263 1.56541
6674 1 1 1.84349 12.2779 5.41293
1276 1 1 17.9266 11.1983 5.0505
724 1 1 1.21092 13.9005 5.27782
85 1 1 3.08933 14.0921 2.98907
336 1 1 1.39958 12.9254 3.55694
325 1 1 5.37047 14.1384 3.57859
1958 1 1 4.57946 12.1949 3.80645
1504 1 1 6.17648 13.7058 5.57369
7464 1 1 7.33075 13.7045 3.84252
7620 1 1 10.2483 16.1097 2.67159
2425 1 1 8.66056 14.8185 2.69551
1545 1 1 9.51563 11.9784 3.33118
1174 1 1 10.9857 12.2047 4.13021
7550 1 1 13.4145 15.4514 2.91002
7040 1 1 13.9154 12.9538 1.51345
1187 1 1 13.085 13.2974 3.01859
389 1 1 16.1078 13.4833 3.54941
2414 1 1 14.3558 14.2284 3.46246
670 1 1 17.7795 15.0711 3.17435
7515 1 1 17.4411 13.9618 4.64424
6719 1 1 16.9463 10.5674 3.04148
306 1 1 1.32787 10.6362 5.0322
712 1 1 16.7068 12.6637 2.71218
2358 1 1 18.4809 14.9529 4.33035
1086 1 1 1.06295 15.9209 3.44647
393 1 1 0.15939 15.4038 2.9838
1173 1 1 1.12279 15.2586 6.51834
7840 1 1 4.9984 16.3092 4.66495
971 1 1 3.82605 16.4104 4.59416
260 1 1 2.39879 12.8045 3.96693
1912 1 1 7.09633 14.7314 2.16363
1266 1 1 7.03645 16.3582 4.70322
1932 1 1 5.0672 17.5692 4.87756
7984 1 1 9.25022 13.4034 3.53715
504 1 1 7.16212 15.2877 3.03746
411 1 1 8.7578 15.6476 4.38471
468 1 1 11.0132 13.7329 6.09713
2224 1 1 13.3103 14.3713 2.90513
7855 1 1 15.7509 15.482 2.8261
1474 1 1 16.2796 14.1286 1.87814
1916 1 1 14.5087 17.049 0.0192463
982 1 1 15.6436 16.6125 2.61247
1087 1 1 16.8641 13.6072 2.5731
1234 1 1 18.2166 13.3459 3.45958
853 1 1 18.456 17.4049 3.76047
2776 1 1 17.76 16.8048 4.15098
2033 1 1 18.2568 17.3734 2.70241
809 1 1 0.547426 17.1667 5.55633
728 1 1 3.02592 17.1946 3.02645
7957 1 1 3.92602 17.4154 4.46732
902 1 1 6.14998 15.6651 3.30268
1485 1 1 4.23893 15.0589 2.59669
937 1 1 4.93072 17.1008 3.99089
1179 1 1 5.49613 15.4826 4.97724
391 1 1 7.4683 16.2949 3.39394
394 1 1 7.42374 18.5335 4.25187
1527 1 1 3.81124 15.2204 5.39649
1500 1 1 6.47888 18.5589 3.76641
460 1 1 9.55321 16.2992 6.4407
7176 1 1 8.35992 16.9803 3.15256
256 1 1 12.0956 14.6282 3.22739
781 1 1 12.3723 16.0714 3.82062
7230 1 1 12.7196 16.2231 2.87442
818 1 1 14.7263 15.4923 3.33245
2150 1 1 14.8474 17.1952 1.94369
1167 1 1 12.9124 18.6803 4.42555
1119 1 1 13.1523 17.3445 3.05896
443 1 1 16.4121 16.011 3.25636
1539 1 1 15.3121 17.6977 4.26089
990 1 1 15.989 18.1107 3.40684
1149 1 1 0.00565531 16.7332 4.73164
1007 1 1 16.9192 17.3666 3.8665
2471 1 1 18.2068 0.773631 4.54126
397 1 1 2.03892 17.6087 4.73149
1198 1 1 1.448 0.647608 1.80407
1514 1 1 2.45499 16.6725 4.85471
2285 1 1 5.17848 16.7964 2.85799
7197 1 1 5.51753 17.3279 5.92592
7613 1 1 5.80181 16.8568 1.65173
829 1 1 7.37571 18.5313 1.83951
3576 1 1 6.886 16.3247 2.48685
94 1 1 9.04017 18.7285 3.75877
1687 1 1 9.51582 17.2466 3.20374
885 1 1 11.2713 15.988 2.53313
2270 1 1 14.2961 17.7728 3.19502
149 1 1 14.373 17.1479 4.51764
7911 1 1 16.0392 1.71579 1.55983
7 1 1 0.0408408 2.2518 3.50225
785 1 1 0.489521 18.1423 5.66965
427 1 1 16.9557 18.574 3.50856
1205 1 1 17.542 18.249 4.83424
430 1 1 1.653 17.0563 5.52868
845 1 1 3.54678 1.79949 4.97118
105 1 1 5.57333 0.236674 4.92283
1367 1 1 4.20702 0.853491 4.43598
894 1 1 3.13769 0.551568 5.06732
1442 1 1 5.03485 1.15269 5.14393
7896 1 1 6.32583 1.15288 4.77461
1776 1 1 5.9576 18.4919 5.72746
2176 1 1 7.44599 1.17333 5.00705
209 1 1 8.80813 2.1453 5.44759
7762 1 1 6.59254 0.151024 4.97453
7997 1 1 11.5414 0.0283817 5.04726
1505 1 1 11.5293 17.2528 1.9545
7989 1 1 12.07 2.36495 3.49117
553 1 1 12.7874 3.30144 5.22541
1587 1 1 13.0558 0.823218 4.80612
946 1 1 16.2003 1.81327 3.79208
859 1 1 15.1311 1.00342 2.71456
870 1 1 14.6254 0.453234 6.01109
1999 1 1 15.6355 0.548857 4.33304
7601 1 1 17.9534 1.44135 5.20506
2681 1 1 18.3485 0.0759011 5.54688
954 1 1 1.35416 0.808977 5.45706
547 1 1 3.26017 2.70891 3.23753
1279 1 1 4.02945 2.97968 4.56124
951 1 1 5.41437 2.67254 6.78797
1355 1 1 5.87348 2.46028 4.51805
1852 1 1 7.83313 2.08202 2.41466
1181 1 1 9.16622 4.11073 5.89591
2054 1 1 9.05628 3.76569 4.11173
824 1 1 9.02573 1.72604 4.17738
587 1 1 10.0448 2.24681 6.12745
3337 1 1 9.15796 2.81594 4.2302
1308 1 1 12.2316 2.85968 2.45017
1749 1 1 9.74681 18.0239 3.71265
1317 1 1 11.6449 2.82541 6.90724
1203 1 1 13.6043 2.58503 4.26082
1661 1 1 14.4405 2.25732 5.09978
1755 1 1 13.765 3.45829 7.65284
780 1 1 14.1143 3.26946 5.18446
1345 1 1 13.6181 1.46962 5.58187
7044 1 1 15.7718 3.91518 7.95816
409 1 1 14.9066 0.782873 7.44439
2323 1 1 15.3823 1.69693 5.70798
151 1 1 17.0001 2.69614 2.49387
109 1 1 0.98218 3.00944 3.49946
139 1 1 1.98155 1.62738 5.84192
412 1 1 1.85262 2.04033 6.7676
7028 1 1 3.73894 3.2875 6.9314
1930 1 1 4.62327 0.912874 2.63834
848 1 1 5.92505 4.3309 6.08485
656 1 1 4.96243 2.0701 3.89191
1323 1 1 7.34795 3.07742 4.98583
1255 1 1 7.84919 0.310041 3.54658
7843 1 1 7.75904 6.99002 5.92568
2397 1 1 7.1583 4.56879 4.15896
1089 1 1 4.69232 3.35504 7.29605
492 1 1 10.7765 3.40009 3.42086
7219 1 1 7.18583 4.71874 5.89619
1039 1 1 10.1021 0.175985 4.61986
2139 1 1 11.3631 3.31296 5.70351
898 1 1 9.60934 3.9795 4.98388
32 1 1 10.7305 4.52785 5.04955
1044 1 1 14.6728 2.65027 6.05913
7827 1 1 14.2265 1.31782 4.74866
591 1 1 13.2593 6.5379 2.69328
1413 1 1 15.3667 2.44988 4.38195
1395 1 1 17.8471 3.48028 5.91733
1338 1 1 16.1334 3.58306 5.6205
155 1 1 0.136727 4.37159 4.13872
6804 1 1 18.6265 4.3957 5.33504
1717 1 1 1.10566 3.6191 4.27812
1241 1 1 0.0355174 2.57943 6.21708
7661 1 1 4.68665 4.03582 6.12437
729 1 1 5.16968 5.46577 3.77845
1159 1 1 6.53971 6.29362 5.74227
1280 1 1 5.75104 9.81576 3.68794
1099 1 1 5.82796 6.01899 4.92782
454 1 1 7.66938 3.60614 5.84391
1664 1 1 10.3193 3.77859 4.32016
6463 1 1 12.5063 6.06005 3.54004
2221 1 1 12.3098 4.12186 3.98419
985 1 1 12.6235 3.08869 3.72744
7712 1 1 13.4343 5.77071 4.82028
2392 1 1 15.6622 6.72177 4.69007
2075 1 1 13.9745 4.49413 4.76753
914 1 1 16.8364 5.23942 3.43661
6443 1 1 17.4539 3.35677 3.54412
7228 1 1 16.9565 3.65563 4.77857
1538 1 1 2.15717 5.93686 6.15435
1443 1 1 2.20217 4.14648 5.41889
7651 1 1 1.84036 5.17274 5.616
523 1 1 2.47841 6.22861 5.18345
1543 1 1 5.86604 4.89133 4.56562
1754 1 1 3.61165 8.10044 4.87653
1410 1 1 1.46963 5.49819 7.13369
1802 1 1 6.17374 6.83292 4.29818
904 1 1 7.19691 6.46515 6.65893
571 1 1 8.5182 7.05652 3.74297
177 1 1 8.39921 5.92676 5.31695
6627 1 1 9.73116 5.28535 5.61217
685 1 1 10.7176 5.48355 5.50463
1724 1 1 9.04567 7.14283 5.34886
102 1 1 14.2634 5.00476 6.41499
1519 1 1 11.4341 6.53174 6.99417
281 1 1 12.0358 5.25619 4.09039
1291 1 1 14.4531 6.874 6.13131
908 1 1 15.5686 6.20343 6.42765
7804 1 1 13.6805 7.20497 4.5692
7352 1 1 15.1927 7.778 7.07095
2645 1 1 17.0223 7.9557 5.00667
7308 1 1 16.2808 5.35902 6.32245