ITEM: TIMESTEP
2000
ITEM: NUMBER OF ATOMS
8000
ITEM: BOX BOUNDS pp pp pp
0.0000000000000000e+00 1.8820720577620570e+01
0.0000000000000000e+00 1.8820720577620570e+01
0.0000000000000000e+00 3.7641441155241139e+01
ITEM: ATOMS id mass type x y z
913 1 1 3.45436 3.64458 2.23189
397 1 1 2.78354 18.468 37.2931
802 1 1 4.26115 2.38932 37.2107
7972 1 1 2.75388 2.97366 0.66984
405 1 1 4.16302 3.94883 36.0223
7614 1 1 7.41364 18.3985 0.93048
18 1 1 3.59846 2.21553 0.323524
89 1 1 5.05996 1.91306 36.9475
1226 1 1 8.44851 16.6823 2.61112
7287 1 1 11.0335 2.09519 0.865282
7861 1 1 10.7331 0.127196 36.5758
390 1 1 9.21218 1.33802 3.93864
1138 1 1 10.6955 1.47927 4.15694
787 1 1 14.1974 2.28136 0.123482
7938 1 1 12.4653 1.56832 1.70684
7341 1 1 15.7934 16.7987 0.439152
7188 1 1 17.3064 17.9127 1.31898
113 1 1 17.1414 14.374 0.978565
1964 1 1 17.8526 0.900906 2.28757
7044 1 1 16.6456 18.6826 2.03084
1142 1 1 17.4486 18.8596 1.03027
412 1 1 2.37957 3.13085 2.04957
7265 1 1 0.332899 1.06606 1.9426
7633 1 1 0.68863 2.01048 35.9805
1160 1 1 2.94872 2.28722 1.49372
1237 1 1 1.24798 3.94844 36.8386
6767 1 1 4.04965 4.24507 3.55296
319 1 1 2.91301 1.73645 37.3154
7316 1 1 5.37246 3.74699 34.6413
527 1 1 6.02732 2.57242 0.631837
1295 1 1 9.37399 18.0357 36.163
7303 1 1 9.39094 0.0296203 35.0371
116 1 1 12.7778 2.18091 37.0782
385 1 1 9.57718 2.21209 3.71386
7989 1 1 10.1591 1.24436 3.2359
149 1 1 11.2973 2.73543 3.38979
39 1 1 14.8212 2.95062 0.955759
100 1 1 11.7566 0.547317 37.3175
7549 1 1 13.4555 1.68424 1.0843
746 1 1 14.8677 1.00651 37.5027
157 1 1 15.4683 1.22052 2.97722
7293 1 1 15.8009 18.1897 36.9055
480 1 1 1.29746 1.47835 4.27968
835 1 1 3.21284 4.16837 0.916632
796 1 1 5.91493 5.9557 1.28959
2432 1 1 18.4337 6.52694 1.52817
44 1 1 4.3147 3.55829 36.998
445 1 1 2.87005 0.571366 0.103757
6648 1 1 7.21276 2.65611 0.021278
1373 1 1 7.07761 3.89875 1.54795
5739 1 1 5.26246 3.72631 1.9117
1739 1 1 5.51605 3.6904 36.5392
529 1 1 7.15509 2.7205 1.21868
696 1 1 6.52662 3.28524 34.7531
171 1 1 7.50584 17.9382 2.97569
7698 1 1 8.80096 0.282595 2.34519
633 1 1 8.99119 3.93753 0.00262118
7821 1 1 11.4638 3.0816 1.53925
1309 1 1 15.2096 4.54056 1.09027
874 1 1 17.7647 4.05698 2.89965
1668 1 1 16.3977 2.41802 35.6766
1634 1 1 17.3274 2.48494 0.775598
752 1 1 0.950812 5.1246 4.74006
431 1 1 17.625 5.01591 37.2033
324 1 1 2.10838 5.22965 2.29027
7641 1 1 18.4584 6.0277 0.0816457
6443 1 1 1.44166 6.06832 0.585958
7371 1 1 3.75312 4.89348 35.5092
440 1 1 4.00298 4.72086 37.3706
1339 1 1 7.79584 6.25458 2.19386
3 1 1 5.4628 4.44129 37.4772
6136 1 1 7.34022 8.92366 0.100705
7250 1 1 8.41626 3.08817 2.05214
15 1 1 6.14433 7.42309 0.0192826
623 1 1 7.65102 4.99205 0.410962
779 1 1 11.1683 3.21632 0.53312
7776 1 1 12.2388 2.64004 3.06317
6986 1 1 9.8636 5.56431 2.64082
7745 1 1 11.4947 4.40404 3.25441
7591 1 1 14.333 4.14521 1.25537
515 1 1 12.0479 3.76492 2.55874
30 1 1 12.6934 7.95035 36.8762
7665 1 1 18.1993 2.88855 2.03282
1640 1 1 17.9889 0.164991 36.6409
7721 1 1 16.7368 5.91689 36.8192
1636 1 1 0.749129 2.38105 1.93209
7754 1 1 2.01425 4.34266 2.8865
1751 1 1 18.6356 8.04517 36.6012
1806 1 1 16.0382 5.89791 35.0679
81 1 1 2.32929 5.74979 1.33451
1290 1 1 4.17275 6.00669 35.2736
10 1 1 4.09703 8.56193 1.11691
569 1 1 3.43959 6.4805 35.8644
60 1 1 5.3656 7.35399 0.648612
7002 1 1 7.94257 7.48021 0.853186
102 1 1 7.1151 7.68925 2.42007
537 1 1 11.1116 3.55063 2.62017
6659 1 1 9.03733 6.0913 1.90137
538 1 1 12.9443 7.75215 1.4266
7071 1 1 9.68355 5.80936 0.792418
505 1 1 14.3576 4.50233 2.33735
1441 1 1 14.4168 8.21837 37.5489
554 1 1 17.0053 4.593 2.23723
1473 1 1 15.4714 6.27926 1.94941
519 1 1 13.8397 7.40817 36.7331
626 1 1 17.2699 8.61392 36.6882
1314 1 1 2.22316 8.37902 2.9186
164 1 1 3.00651 8.00985 37.5892
158 1 1 1.10149 8.80581 1.07315
7648 1 1 3.26417 5.96917 1.81418
1041 1 1 2.3586 7.5445 36.6107
930 1 1 7.50035 6.74778 -0.00479248
1026 1 1 7.51908 7.84845 32.9293
1337 1 1 4.5958 10.4745 1.61733
138 1 1 5.94421 9.45545 1.21138
177 1 1 8.12464 9.18814 3.36241
7743 1 1 9.03594 8.57452 3.25238
133 1 1 10.1185 9.59659 0.780584
107 1 1 10.8665 5.58632 0.610345
142 1 1 14.3597 6.50984 35.679
144 1 1 13.2305 8.17769 0.336715
1359 1 1 11.5724 7.35947 37.4945
1038 1 1 14.6682 8.88924 34.8243
2153 1 1 14.1467 5.08689 1.39131
7444 1 1 14.8142 5.32538 0.331236
281 1 1 13.2008 6.97228 0.315739
193 1 1 15.68 9.0721 37.0557
7800 1 1 17.0425 7.40552 36.6784
191 1 1 1.0117 10.1162 37.5655
202 1 1 1.78413 10.7748 1.3952
7718 1 1 3.27057 9.73145 36.4459
153 1 1 5.09222 8.25821 1.17242
222 1 1 3.33187 10.2385 1.43221
7847 1 1 3.54944 10.1027 0.0414249
564 1 1 5.93078 11.3019 4.1199
647 1 1 5.22764 10.5091 3.27661
541 1 1 3.83015 8.47685 2.66726
95 1 1 7.94822 9.79782 2.55883
582 1 1 9.33618 7.47867 2.21969
1020 1 1 11.0294 7.52455 1.3879
7788 1 1 9.69137 10.0739 2.51593
91 1 1 9.77729 6.9747 1.32239
333 1 1 12.1793 7.10581 36.5599
74 1 1 11.3316 8.18771 0.511998
7780 1 1 13.6175 7.62555 33.4317
6997 1 1 14.5365 9.21973 2.20844
1350 1 1 16.7004 9.2341 2.22922
238 1 1 16.5389 7.76352 0.981086
349 1 1 15.766 8.42681 0.432061
6683 1 1 2.75631 10.889 1.99306
6972 1 1 0.93185 11.5407 1.36658
1003 1 1 2.3664 9.73143 1.63269
300 1 1 1.78903 11.5085 2.16508
7812 1 1 2.39089 10.878 0.56772
2373 1 1 5.07521 9.92262 37.6192
645 1 1 7.43092 9.75889 0.72025
7579 1 1 6.75099 10.3881 4.63305
573 1 1 6.25188 9.89646 3.60535
357 1 1 6.82662 10.7493 3.40966
615 1 1 8.60621 8.21412 1.4973
7538 1 1 10.988 11.0497 0.282568
1790 1 1 12.1166 10.5226 0.828024
6316 1 1 15.0702 7.82192 1.11712
7468 1 1 10.5088 6.85185 0.163638
1430 1 1 12.2535 9.49064 35.7181
2234 1 1 13.679 8.84611 36.9939
1036 1 1 14.1077 10.6809 36.8879
235 1 1 16.3705 10.6214 3.2862
7440 1 1 16.6524 6.39279 0.169103
6599 1 1 15.8958 10.7882 1.72377
200 1 1 18.2727 10.1406 2.36157
4 1 1 17.197 10.9731 1.03547
311 1 1 1.30341 15.396 37.6191
146 1 1 15.6919 9.90683 2.412
962 1 1 1.5655 11.6462 0.463157
7479 1 1 1.11948 14.1963 0.805114
243 1 1 4.0606 13.0144 0.424328
7897 1 1 0.0693909 10.8101 1.59821
203 1 1 2.28191 11.6928 1.27869
7817 1 1 2.68568 14.026 0.408966
290 1 1 6.89058 13.0091 3.97111
2177 1 1 5.73437 9.63014 36.8377
526 1 1 6.15243 12.8295 3.24758
7936 1 1 6.20204 11.807 36.4816
7891 1 1 8.02546 10.5296 36.9561
1509 1 1 6.67995 13.2732 36.3205
699 1 1 9.40517 11.8769 1.333
2244 1 1 11.4884 10.5599 3.58552
7461 1 1 11.511 10.6769 37.0338
1100 1 1 11.6364 9.21129 3.80496
683 1 1 14.5819 10.3205 2.6613
1368 1 1 18.1206 11.5732 34.3249
7834 1 1 15.9217 12.203 2.26843
1108 1 1 17.5718 13.3738 0.576662
165 1 1 0.914913 12.397 0.840936
7451 1 1 0.191334 14.3511 37.4988
7086 1 1 2.5257 15.8456 0.500069
246 1 1 1.90345 13.1158 33.8492
7581 1 1 1.51709 13.7133 36.9156
7953 1 1 7.75056 11.991 1.86456
1102 1 1 5.12252 12.6815 36.7847
1010 1 1 5.69992 13.8314 3.20372
287 1 1 6.91476 14.694 1.05806
1070 1 1 11.321 12.9769 2.23599
7610 1 1 6.40817 16.033 0.0751867
768 1 1 7.75903 15.5665 34.1775
1501 1 1 13.6778 14.762 36.8813
1069 1 1 10.3343 11.8221 2.51541
7464 1 1 11.801 13.502 0.921755
7516 1 1 13.5682 14.0626 0.456956
7452 1 1 13.5068 13.5291 1.69121
7189 1 1 18.4538 13.0192 37.5936
6563 1 1 17.388 12.4406 2.02264
1484 1 1 1.37516 14.9593 36.29
310 1 1 2.91023 17.9882 2.30694
609 1 1 18.5226 14.8205 0.714328
6379 1 1 3.50743 13.2658 3.22417
7180 1 1 3.91598 15.0393 1.07339
627 1 1 4.45194 12.8813 3.11145
7535 1 1 6.10073 16.8935 0.434416
7555 1 1 6.0566 14.9987 36.7555
229 1 1 8.16179 15.8566 0.76706
6411 1 1 5.93464 15.3098 1.41911
7613 1 1 8.59202 15.7923 3.45118
1908 1 1 9.35279 15.9591 2.68345
725 1 1 7.30864 15.8925 36.676
7504 1 1 13.7229 16.357 0.690918
259 1 1 13.2698 15.7855 2.0397
798 1 1 15.0349 15.1443 35.9013
7872 1 1 14.4548 15.0121 4.83196
7443 1 1 15.1709 17.5569 1.14796
1199 1 1 15.6299 15.6997 0.0687099
7844 1 1 18.1056 17.7028 2.38729
6634 1 1 16.698 14.4363 36.8314
753 1 1 18.0557 15.8833 0.502684
1997 1 1 15.453 15.1069 1.08413
105 1 1 4.0756 0.193533 0.649463
7561 1 1 2.45121 17.3049 37.3718
7957 1 1 1.40138 17.7759 37.5594
873 1 1 2.22211 14.463 37.2519
7964 1 1 4.22937 17.9343 1.42564
7119 1 1 3.85873 0.806171 1.49824
7701 1 1 7.00453 14.4211 2.57825
340 1 1 5.30078 15.8249 37.1956
1172 1 1 4.59961 13.6996 36.7681
7975 1 1 8.95196 17.1878 37.403
738 1 1 7.10958 16.4235 0.929982
286 1 1 9.69014 13.4163 37.3404
700 1 1 9.82218 1.10528 2.10522
1170 1 1 9.28469 15.2946 36.9692
7994 1 1 11.4895 18.5496 0.428759
1506 1 1 10.979 12.3506 5.88342
7230 1 1 14.2285 15.3385 0.27287
6750 1 1 14.4342 16.1295 1.78921
837 1 1 14.8844 16.2924 0.633878
677 1 1 12.8485 15.6534 34.9513
6674 1 1 2.06012 17.73 3.61165
1713 1 1 1.64106 17.8383 2.3637
547 1 1 4.00476 1.93044 1.24723
6753 1 1 4.05862 0.290942 34.7879
7562 1 1 5.05705 18.4921 4.23123
399 1 1 2.19752 2.07914 36.7107
889 1 1 3.16891 1.71099 35.9324
6673 1 1 7.95526 2.14826 3.03404
7585 1 1 6.31582 1.98481 2.14706
7620 1 1 13.5447 18.3411 1.13823
419 1 1 9.66236 16.0432 1.19107
7210 1 1 5.76122 17.5289 3.23324
11 1 1 12.6858 1.00206 0.484025
6832 1 1 13.5197 18.5787 3.40173
22 1 1 14.5768 18.3767 37.5635
1146 1 1 17.5081 18.4944 35.6054
7547 1 1 16.7787 0.944788 1.92221
784 1 1 18.0853 15.5868 36.4477
73 1 1 1.16513 1.82476 36.8266
278 1 1 16.5455 16.5294 1.19869
8000 1 1 1.85125 17.3234 0.894965
1200 1 1 0.0899396 0.167649 3.69987
402 1 1 3.02711 0.775596 36.5222
1198 1 1 2.54339 0.397199 2.71454
43 1 1 6.87843 0.0366118 3.19328
1168 1 1 6.9222 0.511304 1.85566
428 1 1 6.01601 0.123973 2.12739
7532 1 1 6.16125 1.05174 2.87683
496 1 1 7.82694 18.6508 3.67891
855 1 1 8.69763 0.666847 37.1034
1582 1 1 8.60511 0.451072 5.75088
504 1 1 8.41258 17.6876 4.21718
764 1 1 9.20744 2.16947 37.325
814 1 1 9.85924 18.4566 2.42811
838 1 1 11.1467 18.6979 3.45706
7779 1 1 13.3846 18.3437 4.35851
7155 1 1 14.2528 0.798043 3.87116
427 1 1 14.7495 17.8381 3.07192
422 1 1 14.9092 1.2522 1.01305
7478 1 1 14.8517 2.38764 3.67464
151 1 1 15.6445 2.46684 2.39256
430 1 1 1.48923 0.324896 1.6085
2134 1 1 0.841769 0.363745 0.772544
96 1 1 2.24161 2.09623 2.96711
843 1 1 0.575838 0.566294 2.91013
1239 1 1 4.11906 2.97686 1.04507
38 1 1 7.24426 0.0672821 4.75169
1461 1 1 7.34345 1.02907 3.08712
130 1 1 4.21989 1.75454 5.68778
765 1 1 8.50463 16.607 1.46274
7656 1 1 9.60407 0.361959 3.30048
421 1 1 10.8779 1.34937 2.37177
7619 1 1 8.48505 1.3795 2.62197
500 1 1 12.9 3.85401 1.6697
1196 1 1 9.93361 2.04168 1.57207
1270 1 1 11.4266 2.46993 2.43957
1315 1 1 14.5219 2.10075 2.57172
7708 1 1 15.597 0.459587 0.46976
1143 1 1 14.4043 18.4219 2.10295
2029 1 1 1.06796 1.41547 3.25389
356 1 1 15.8991 2.05505 1.32913
2159 1 1 0.71102 16.231 0.226976
7950 1 1 1.4113 2.06402 1.21552
155 1 1 1.23319 3.35598 2.32602
109 1 1 2.10466 2.84772 4.431
7996 1 1 4.10027 3.928 1.43785
7280 1 1 6.2806 3.72926 2.31888
239 1 1 7.87939 5.44784 3.02624
37 1 1 5.11143 1.31621 2.98236
376 1 1 5.6984 2.73691 4.94158
1206 1 1 7.34328 1.91717 4.1855
611 1 1 6.87787 1.99501 3.35834
1333 1 1 6.83368 0.971008 5.14332
1687 1 1 8.48131 3.13991 37.1276
946 1 1 9.8194 2.53762 5.10925
7997 1 1 8.39577 2.45894 4.37775
824 1 1 10.0003 3.17649 1.20319
461 1 1 11.6421 6.35703 0.137096
616 1 1 10.6085 3.92939 3.67347
7855 1 1 11.2619 1.00478 3.25122
543 1 1 13.7542 2.6932 1.20961
1229 1 1 15.1071 3.89927 2.90373
508 1 1 18.1948 4.92174 1.94815
786 1 1 0.291163 2.26975 37.2818
552 1 1 17.1519 3.00152 2.73318
65 1 1 18.0244 4.63417 5.04646
420 1 1 0.610323 1.3908 0.470107
2197 1 1 15.8748 5.45818 37.3351
34 1 1 1.78134 3.38455 0.0610637
7647 1 1 2.18658 3.84299 1.19708
450 1 1 3.522 5.05409 4.23789
209 1 1 7.96886 4.23671 2.71664
1776 1 1 7.00883 5.56014 1.75226
926 1 1 4.83416 5.91331 37.4172
455 1 1 6.09211 3.62587 3.82894
566 1 1 7.05898 3.12825 2.56111
7762 1 1 8.99972 4.90641 3.43796
581 1 1 10.2241 2.82026 35.8971
180 1 1 12.4492 5.4831 3.17945
224 1 1 10.3323 2.73168 2.67539
1701 1 1 9.35114 4.7425 0.912175
909 1 1 10.8162 9.85952 34.6191
32 1 1 12.6637 1.39337 3.29225
591 1 1 15.0542 5.5258 1.36545
156 1 1 10.9161 6.52977 1.43688
470 1 1 13.8614 5.58721 4.16547
908 1 1 15.2137 6.54213 0.873802
1238 1 1 12.4252 8.64423 0.240564
7756 1 1 16.2488 6.59169 1.19679
7601 1 1 1.08813 2.39679 2.92933
1717 1 1 0.189873 6.27045 2.20695
1318 1 1 17.766 8.33911 0.139952
2110 1 1 1.04479 7.64754 2.2461
478 1 1 2.70833 9.00345 0.883852
580 1 1 3.07057 5.98861 4.05455
848 1 1 1.76137 7.82729 3.68075
475 1 1 3.21421 5.32268 0.320869
7643 1 1 3.44456 7.79137 1.32722
1488 1 1 3.80153 5.03368 1.3645
1369 1 1 5.57205 7.04383 1.80144
488 1 1 6.87918 6.68995 1.12412
637 1 1 5.6887 9.05464 2.6203
454 1 1 6.36993 4.66121 2.15895
7748 1 1 6.77866 6.64606 2.55239
932 1 1 7.50271 8.31683 1.39114
497 1 1 8.67366 4.30097 36.1713
231 1 1 12.3048 4.87983 1.95996
862 1 1 11.2211 3.30331 4.6813
978 1 1 17.2746 7.12023 1.8456
7827 1 1 13.3255 5.46042 1.89255
2160 1 1 17.1733 3.53277 1.49593
7603 1 1 18.1074 8.01496 3.05872
6875 1 1 18.1458 5.92307 2.75064
474 1 1 17.7799 6.0409 36.2806
362 1 1 1.79885 9.03073 5.35605
45 1 1 1.9835 6.39513 3.91158
98 1 1 1.81237 8.42508 1.85077
1766 1 1 2.95328 8.57882 1.94318
1366 1 1 5.89336 9.56007 4.73415
6896 1 1 6.41296 8.94137 37.5121
1917 1 1 3.86032 8.72387 37.2723
1417 1 1 6.95129 11.0817 2.15469
53 1 1 7.62365 8.68071 2.38912
539 1 1 8.74853 7.59166 3.31155
7659 1 1 7.86486 8.16304 3.29393
1044 1 1 12.2974 7.44692 0.616674
570 1 1 7.75295 6.43216 36.4207
498 1 1 14.6303 7.96866 2.08717
1422 1 1 13.4968 7.87326 2.4455
1039 1 1 12.3541 6.3688 3.67541
188 1 1 14.3965 8.85363 0.810973
1000 1 1 14.5415 9.47305 36.8357
159 1 1 13.7413 7.19373 4.17448
1033 1 1 14.6384 9.39836 4.25434
7397 1 1 17.2563 6.28154 3.54705
1443 1 1 18.2927 5.45911 3.80365
1316 1 1 1.27537 5.20309 1.70715
162 1 1 17.5361 9.64517 2.87751
959 1 1 0.0177381 7.61911 3.73716
7525 1 1 0.63939 9.54532 3.75308
206 1 1 0.856707 6.83405 2.97853
1852 1 1 0.833872 7.33326 4.53177
7841 1 1 2.4353 6.82445 2.25397
175 1 1 0.543491 8.53065 2.49445
201 1 1 4.08428 11.2133 3.39807
983 1 1 3.34782 7.81301 3.20745
1048 1 1 4.79209 9.33094 1.20431
571 1 1 5.5221 9.95365 2.04719
1089 1 1 6.56881 7.32031 4.11551
653 1 1 6.99854 9.57635 1.95392
7862 1 1 6.56687 10.3845 0.867415
1420 1 1 9.18302 9.25918 4.97683
973 1 1 9.77196 8.48489 1.29758
228 1 1 9.76056 6.64905 2.65681
575 1 1 10.5882 6.06249 4.02471
7904 1 1 10.6847 7.51161 2.38161
636 1 1 14.0986 6.46736 1.84356
2154 1 1 15.8394 7.52889 1.86308
7758 1 1 18.167 7.81265 0.897785
1718 1 1 16.2735 5.34617 1.23448
1396 1 1 17.7153 6.87785 2.78622
84 1 1 16.5944 9.07379 5.01584
308 1 1 17.18 8.68823 1.00101
1005 1 1 2.26862 10.2466 2.77116
195 1 1 1.1989 10.7006 2.53254
1282 1 1 -0.00105245 12.0493 1.49508
154 1 1 5.83131 11.1142 1.24323
685 1 1 7.14408 8.75837 3.82253
1820 1 1 4.66848 12.0824 3.77049
2215 1 1 7.47992 13.0866 1.7578
7334 1 1 9.30504 9.55333 1.57121
7822 1 1 9.82033 10.5247 1.60086
232 1 1 10.5292 10.7371 2.37603
1532 1 1 10.1893 8.81586 2.40091
1983 1 1 13.0407 6.85287 2.53786
602 1 1 13.7834 8.87714 2.99808
276 1 1 12.9284 9.59268 4.28066
1074 1 1 14.0236 10.2339 3.94576
7428 1 1 12.4946 8.01111 3.32113
240 1 1 13.9842 12.9449 2.68465
7480 1 1 17.4253 10.1822 4.03647
877 1 1 18.3711 11.7041 3.02216
444 1 1 17.9698 9.01552 2.22942
237 1 1 17.8183 12.1774 0.855174
669 1 1 16.779 10.4706 2.32223
648 1 1 0.265007 10.6433 3.05811
1173 1 1 2.34706 15.521 1.39551
1486 1 1 0.886473 12.5135 2.03352
342 1 1 5.66528 12.3193 3.90028
7536 1 1 6.55699 12.4042 37.3513
1135 1 1 8.37606 12.8108 0.582031
691 1 1 6.91332 11.0189 37.5384
225 1 1 10.9008 13.9596 37.5759
253 1 1 10.1175 10.9753 3.39032
1103 1 1 11.1292 12.2841 3.79931
574 1 1 12.1389 11.1995 0.0591727
7893 1 1 13.9945 14.9308 2.75612
1533 1 1 10.8804 13.1891 4.52177
610 1 1 13.174 10.6003 1.28926
1825 1 1 11.0993 11.4231 3.04286
1073 1 1 15.946 11.5599 0.25758
967 1 1 0.430257 12.2427 3.31575
667 1 1 15.3489 12.5913 5.12314
597 1 1 17.8384 12.2563 37.456
204 1 1 0.754173 14.8066 5.39042
7052 1 1 16.5311 12.8257 0.888672
1078 1 1 0.602166 14.6288 2.24611
1529 1 1 2.65615 11.5567 2.85566
125 1 1 3.0902 12.7863 2.24939
7888 1 1 18.5169 13.0606 1.46408
1136 1 1 5.66369 14.889 3.50128
255 1 1 5.81988 14.7527 0.215287
704 1 1 4.27676 14.2579 0.279579
690 1 1 8.94077 14.2746 1.82075
1017 1 1 9.3928 9.75356 37.1226
16 1 1 5.80402 11.5433 0.0909395
344 1 1 9.72676 12.3859 36.2939
304 1 1 8.62135 11.3059 1.54311
379 1 1 11.6574 13.279 3.48123
1153 1 1 14.5086 13.9383 1.0308
878 1 1 12.9737 12.4024 3.00528
273 1 1 15.0612 14.0248 2.68906
1537 1 1 15.7538 11.2361 2.66909
990 1 1 16.8271 13.8074 2.82644
1042 1 1 17.083 13.5619 1.66578
7993 1 1 16.9233 16.1327 2.66942
85 1 1 0.787687 13.6946 1.68925
2367 1 1 1.43324 16.3074 2.2159
755 1 1 6.61271 15.6944 4.54087
693 1 1 18.6166 15.3553 1.84937
7123 1 1 5.91204 14.531 2.25126
374 1 1 4.64302 16.2278 2.67798
773 1 1 7.10293 12.8285 0.741136
2343 1 1 9.81685 15.3144 35.9011
687 1 1 10.593 15.8814 1.65935
1573 1 1 10.8889 15.0854 36.7158
2661 1 1 10.995 17.0891 1.25964
7945 1 1 12.3853 12.882 1.53292
31 1 1 12.6194 17.3712 2.69247
2062 1 1 10.4775 14.0567 3.1931
433 1 1 13.2568 15.9505 4.37189
1187 1 1 12.2565 14.3068 2.37025
7147 1 1 15.169 15.4449 4.08072
790 1 1 14.3859 12.6666 0.757957
629 1 1 17.2741 14.809 3.0122
7903 1 1 17.3859 16.9674 1.64035
1561 1 1 1.20528 15.6671 1.43799
2037 1 1 18.1781 16.3416 1.57443
439 1 1 4.2435 15.89 0.157969
1446 1 1 3.63787 14.6259 2.50524
643 1 1 2.49164 15.4641 2.34953
7455 1 1 4.44857 16.0556 1.55989
1453 1 1 6.92758 15.9598 1.84401
370 1 1 4.52717 16.1176 3.77531
1133 1 1 10.0423 16.809 2.15601
1485 1 1 6.43716 17.8934 1.32882
1131 1 1 7.26755 17.1049 1.9207
1134 1 1 9.39742 18.542 37.3152
7980 1 1 9.00512 17.723 0.715437
7901 1 1 7.19369 13.0985 6.6435
416 1 1 10.2316 16.5074 6.04852
740 1 1 9.35852 18.4846 1.52954
7838 1 1 13.9863 17.3415 1.4501
982 1 1 14.1927 15.2739 3.84145
64 1 1 11.4572 14.2141 3.22665
1107 1 1 12.1484 15.4945 2.17159
7040 1 1 13.2743 0.553182 1.71364
670 1 1 16.138 15.5281 3.54073
1469 1 1 13.3474 16.1036 35.9474
282 1 1 1.24444 17.9637 6.01289
398 1 1 18.3782 0.192785 1.58946
899 1 1 2.08252 17.0377 2.69801
7926 1 1 4.93449 0.479799 2.24626
727 1 1 4.69676 18.5457 3.10464
293 1 1 5.76916 18.5251 2.99529
207 1 1 6.14411 17.4768 2.24719
363 1 1 4.63367 17.4844 3.66909
726 1 1 10.4849 0.360111 1.89856
292 1 1 8.90447 1.64103 0.639692
377 1 1 10.4437 18.1973 1.37024
781 1 1 11.6859 0.669995 0.948327
7550 1 1 11.3919 17.2379 3.49863
1250 1 1 13.12 14.9261 4.6455
375 1 1 15.0339 17.1391 2.24863
391 1 1 10.1164 17.4892 0.596576
754 1 1 16.1056 16.7473 5.32885
7987 1 1 14.5541 0.15485 1.05029
1272 1 1 16.6412 16.5156 3.7578
465 1 1 13.7448 17.3765 3.56993
1474 1 1 0.325347 17.6729 1.96021
1590 1 1 16.142 18.2845 2.91509
7560 1 1 0.161425 17.1597 0.656059
40 1 1 0.942806 17.9347 0.860079
115 1 1 4.42861 0.469998 3.96016
7651 1 1 4.55108 3.91273 2.74028
816 1 1 1.93792 16.7152 4.12412
7848 1 1 3.47882 2.07664 3.63738
7678 1 1 4.87353 2.08021 4.1504
487 1 1 6.83946 18.0904 37.6251
937 1 1 6.23997 17.1248 3.98261
1584 1 1 7.16751 17.4734 0.653608
1094 1 1 9.58982 17.0527 3.30032
7 1 1 11.8226 0.775444 4.1013
7984 1 1 10.024 15.3812 4.46
501 1 1 12.3425 0.0036652 4.837
7911 1 1 13.1033 0.674264 4.12298
7990 1 1 12.9919 17.4138 4.45081
139 1 1 17.8026 3.5884 3.86797
382 1 1 15.2674 0.329532 4.02097
2033 1 1 0.0923597 18.5867 5.13781
7887 1 1 15.0783 0.2518 2.95523
1110 1 1 18.1122 1.88373 1.37782
7992 1 1 18.6498 18.5932 2.56945
1481 1 1 18.5343 1.18358 3.15075
800 1 1 2.08607 1.04156 3.56104
917 1 1 3.53224 1.36709 6.89938
47 1 1 1.56255 4.72421 3.82227
728 1 1 2.91811 1.04738 4.41848
321 1 1 2.86608 3.85079 3.45242
841 1 1 7.09317 17.8388 3.98595
7253 1 1 5.78744 0.678139 6.16904
7896 1 1 3.40865 1.70449 2.30219
7616 1 1 8.61931 0.328789 3.82887
520 1 1 4.43287 3.97011 4.86411
7296 1 1 7.95753 2.5949 5.96861
41 1 1 10.5792 17.9817 5.53987
863 1 1 8.93025 18.6712 4.77204
829 1 1 8.61499 1.30343 5.1661
553 1 1 12.5779 0.814725 6.58796
2232 1 1 13.0023 2.33875 4.29001
7856 1 1 7.50068 2.07257 2.10779
2038 1 1 15.0945 1.59508 4.30543
1223 1 1 13.8997 1.91347 4.13748
1540 1 1 16.5865 1.56644 2.84792
780 1 1 17.3722 2.66163 3.88565
1554 1 1 0.015979 2.12629 2.65805
7638 1 1 0.178266 4.33107 4.20826
7228 1 1 0.913327 5.99329 4.12719
1158 1 1 0.271402 5.68868 3.22033
7661 1 1 4.43801 2.96193 2.14624
7715 1 1 2.98026 4.76896 2.08869
1327 1 1 4.61551 2.00212 2.05068
7685 1 1 5.43703 2.09749 5.8442
1216 1 1 4.77668 2.76894 5.35851
2136 1 1 5.60592 2.33005 3.54619
886 1 1 6.94796 1.33711 0.961537
1336 1 1 7.5581 1.85188 5.15852
7700 1 1 6.7316 2.81563 3.93041
876 1 1 10.7912 2.27374 5.78241
588 1 1 9.12216 3.17707 4.72935
2150 1 1 9.40371 1.8862 2.52069
2103 1 1 10.6676 4.12565 1.85949
147 1 1 12.0225 2.39285 4.26424
1597 1 1 12.8602 6.98879 4.69956
2099 1 1 15.7222 3.19009 3.41121
1269 1 1 13.5172 3.16501 3.53373
1037 1 1 15.8047 2.88266 4.3846
514 1 1 13.328 4.19926 5.12083
432 1 1 15.8068 3.61267 1.83051
1231 1 1 18.1084 6.74387 4.11972
483 1 1 17.4605 4.08465 6.43189
364 1 1 18.2553 2.23076 6.3112
910 1 1 18.4913 3.94665 6.18169
6804 1 1 17.5624 6.18701 6.21066
489 1 1 1.94522 7.47575 1.67792
35 1 1 1.0299 4.22989 0.424509
884 1 1 1.72973 6.19622 2.1965
7607 1 1 0.763392 4.03577 5.1219
1280 1 1 4.69266 4.99321 4.28362
528 1 1 5.36455 4.32698 3.33297
767 1 1 3.229 2.74339 2.54247
1381 1 1 7.1718 3.88973 3.64648
1296 1 1 8.67278 6.53022 3.62447
587 1 1 8.56993 5.42054 1.37536
1331 1 1 6.88901 3.74821 4.85033
2126 1 1 12.2293 7.24993 5.44984
576 1 1 10.1776 3.63409 4.86777
217 1 1 7.64592 3.71411 0.620086
387 1 1 14.7818 5.87229 2.8965
1265 1 1 16.1636 6.06058 3.21971
1377 1 1 15.0388 6.95898 2.59517
1670 1 1 16.5256 5.5748 4.19812
954 1 1 17.1682 5.13918 3.19446
1202 1 1 16.4118 4.76894 5.33292
68 1 1 15.7942 4.64326 2.04161
525 1 1 16.9109 4.60636 4.48123
481 1 1 17.3511 7.4328 4.81237
112 1 1 16.9386 6.21755 5.26712
1194 1 1 1.69131 3.77578 3.90521
1241 1 1 0.25567 7.16238 5.50719
7931 1 1 18.3651 5.70532 4.74971
2357 1 1 2.62484 6.10884 3.06306
966 1 1 3.7725 6.12795 0.88078
7823 1 1 5.15573 5.99111 2.13959
1885 1 1 5.07414 4.95678 1.6926
1051 1 1 6.23391 5.74819 2.28045
1098 1 1 6.79172 5.76831 5.30428
555 1 1 11.4681 5.67345 4.52866
446 1 1 12.4758 4.7436 3.85956
1378 1 1 9.56124 6.0581 3.67126
1222 1 1 11.8591 7.68279 4.46621
7432 1 1 16.1872 7.22166 3.02841
948 1 1 13.3907 0.63542 3.02552
606 1 1 14.0887 6.47909 5.30377
1360 1 1 18.7417 8.55143 1.30376
1648 1 1 18.2271 8.22891 4.74124
1968 1 1 16.1674 7.49895 7.10939
1355 1 1 1.84639 7.08683 4.83719
522 1 1 1.62735 8.14954 4.90056
441 1 1 2.41315 9.04551 3.92096
2071 1 1 1.86757 6.12759 5.82197
560 1 1 0.643181 7.79202 1.02684
1409 1 1 3.61436 6.81941 2.91223
568 1 1 6.42438 8.4539 2.93501
90 1 1 3.72835 6.54756 4.76028
1262 1 1 4.46766 8.27191 3.47134
1376 1 1 5.86649 6.34006 4.04077
7843 1 1 5.84456 7.23119 4.92025
1344 1 1 9.8987 6.97667 3.72147
988 1 1 7.78478 5.59127 5.90532
865 1 1 6.42675 6.44976 37.5557
140 1 1 12.0316 4.6567 4.84925
173 1 1 9.07592 3.88591 2.93832
462 1 1 9.79204 7.90439 3.10493
649 1 1 11.1635 5.59448 7.06497
160 1 1 16.9666 7.8889 2.88615
556 1 1 15.4112 8.73675 4.7299
7804 1 1 15.3431 8.08395 6.21185
996 1 1 0.757857 8.22279 3.58523
557 1 1 17.1887 8.2405 2.04677
393 1 1 18.5845 11.6989 5.1884
7928 1 1 2.82988 8.53714 5.43495
7322 1 1 4.96526 9.51906 3.19882
1365 1 1 3.64564 8.77783 4.41441
1287 1 1 4.78099 6.66108 2.83377
7806 1 1 7.56328 7.84514 4.53816
315 1 1 7.12374 11.9276 4.09614
358 1 1 5.87648 8.84318 3.82536
1482 1 1 8.07485 9.57533 4.64434
1724 1 1 8.62198 8.08307 5.32498
2338 1 1 10.1648 9.20164 5.71612
618 1 1 10.7237 9.95699 3.39985
7377 1 1 9.23467 10.9362 6.39204
1105 1 1 14.6258 9.72165 6.30278
593 1 1 9.31414 7.47812 4.69997
1826 1 1 11.8151 9.44012 2.11417
211 1 1 10.9263 7.21687 4.54111
1072 1 1 12.48 10.1074 2.44737
1478 1 1 11.5381 7.27571 3.25897
7395 1 1 16.238 7.49397 4.83973
108 1 1 12.7235 9.09756 3.2785
1637 1 1 18.6751 7.51574 2.01142
7880 1 1 0.0699709 9.53356 5.22212
1439 1 1 18.6535 8.88147 4.13877
997 1 1 0.223594 9.48056 1.0286
327 1 1 0.610859 12.0395 36.7133
7791 1 1 4.50877 10.5774 4.29037
925 1 1 4.9699 8.55239 4.37767
7482 1 1 3.66697 9.68227 3.71742
2122 1 1 5.32977 13.2669 4.00856
1008 1 1 6.12801 12.3495 4.76299
586 1 1 7.83249 10.3218 3.82344
1049 1 1 8.83843 11.0802 3.35593
2305 1 1 8.67045 12.0506 5.14313
536 1 1 12.4457 8.68895 4.15831
492 1 1 9.71145 10.3042 3.92656
1984 1 1 7.74987 12.6745 37.4835
213 1 1 10.9472 8.8614 6.38813
1939 1 1 12.0456 8.5467 5.9531
638 1 1 13.92 8.33062 1.46822
1822 1 1 11.6452 11.1971 5.5811
955 1 1 11.4753 9.14057 4.76668
600 1 1 13.0079 11.9265 3.98498
1113 1 1 17.6422 9.18564 4.03544
1631 1 1 16.2168 9.2933 3.13083
642 1 1 0.751764 9.81128 6.31431
757 1 1 0.452902 9.40455 2.10647
2320 1 1 17.4173 8.36218 5.39053
6569 1 1 18.7188 9.71889 6.83529
1128 1 1 1.27141 11.6109 5.82195
1427 1 1 1.70694 9.9461 3.58529
1878 1 1 0.406053 11.4601 2.32191
1411 1 1 4.51739 14.018 2.65739
1450 1 1 5.22305 11.1211 2.29032
1093 1 1 3.92041 11.8 4.5196
216 1 1 4.72625 14.359 5.22758
1357 1 1 7.50505 12.5017 4.94501
1476 1 1 8.82593 13.7716 4.5767
1112 1 1 7.7369 11.2596 2.76226
277 1 1 9.87658 13.2847 1.46708
424 1 1 9.22923 10.7543 0.481811
7829 1 1 9.50597 12.9836 4.42584
1507 1 1 15.8201 10.6632 4.93707
271 1 1 15.025 9.47861 3.25632
7811 1 1 13.0876 12.6658 0.831125
991 1 1 12.7637 14.4939 3.57733
1942 1 1 15.469 11.4184 3.69347
639 1 1 18.3611 10.0087 3.5314
1046 1 1 14.1848 11.693 4.23661
712 1 1 17.2678 12.1634 4.42575
251 1 1 0.0886049 12.9045 5.61923
1077 1 1 0.61625 13.1724 4.13167
1596 1 1 18.2896 10.0515 4.5592
7403 1 1 2.46898 12.543 3.08675
7921 1 1 1.61934 10.9845 3.53157
7835 1 1 2.12154 13.5554 3.49028
350 1 1 3.5838 15.7764 2.50016
1082 1 1 3.43094 14.8393 4.02585
7503 1 1 5.11696 15.294 2.44681
1504 1 1 4.51809 14.3242 3.60391
7487 1 1 6.82974 13.2661 2.69925
7784 1 1 5.22902 13.1107 5.39123
584 1 1 7.98816 13.7548 0.10447
1175 1 1 7.85029 12.8691 3.98656
227 1 1 8.63103 14.5663 0.110494
1906 1 1 9.76512 11.6865 0.370012
1657 1 1 6.79542 11.9748 2.68221
628 1 1 14.8886 10.4408 4.67241
678 1 1 12.406 13.2807 2.52883
6719 1 1 16.6945 11.5393 1.93871
1120 1 1 17.1226 15.0795 4.11391
7515 1 1 18.1999 14.2941 2.17421
1389 1 1 0.633227 13.6853 2.87184
7870 1 1 0.444144 15.4416 3.67749
688 1 1 1.1705 14.7737 4.27065
724 1 1 1.48723 15.5499 3.34301
7602 1 1 4.51829 17.9222 6.26739
1145 1 1 1.79072 13.6544 5.97504
1550 1 1 3.96748 16.1656 6.14621
1217 1 1 7.72699 15.13 5.35292
1301 1 1 6.07932 13.958 4.32318
7531 1 1 8.37657 12.896 1.78373
2017 1 1 9.97765 12.6128 3.32801
1139 1 1 11.1703 14.893 1.9912
736 1 1 12.4727 11.6688 6.00271
381 1 1 9.22492 12.5872 2.17491
19 1 1 11.2611 16.8736 5.78366
1184 1 1 12.3392 13.142 5.08188
1432 1 1 11.7771 13.9002 4.24332
317 1 1 12.3248 16.1776 2.91719
1151 1 1 14.5186 12.664 3.59411
320 1 1 16.067 13.395 6.49685
7923 1 1 15.1829 13.5227 4.49409
234 1 1 16.2471 15.4299 2.37287
2351 1 1 16.0326 15.5977 5.7168
663 1 1 17.8959 15.5151 2.52956
1445 1 1 17.4823 13.5001 3.81654
1567 1 1 16.974 15.0217 5.16749
7968 1 1 0.278707 16.0232 2.58371
812 1 1 1.10405 18.5518 5.03464
888 1 1 3.74016 17.8247 3.06782
1156 1 1 5.27316 15.2661 4.76102
331 1 1 4.69036 14.3998 1.77836
336 1 1 4.56483 16.521 5.37499
2837 1 1 2.5306 16.0708 3.24585
1211 1 1 5.99571 15.9272 2.33835
1179 1 1 4.77601 17.5104 5.21314
423 1 1 10.4014 16.2124 3.63232
1530 1 1 6.87861 13.5211 4.85934
27 1 1 8.90431 16.7892 7.44631
411 1 1 10.3575 15.1838 2.88717
1541 1 1 11.2752 18.708 4.52296
7508 1 1 11.8698 18.1503 2.76949
766 1 1 10.8452 15.3608 7.25508
316 1 1 11.8922 16.8399 7.0655
6720 1 1 13.014 14.7713 1.54662
1147 1 1 10.7898 16.3897 4.68147
7551 1 1 15.5927 18.2016 4.13137
328 1 1 15.4219 18.2222 2.18286
443 1 1 16.8488 17.3825 2.7771
1149 1 1 18.14 15.9175 3.53242
692 1 1 0.0162035 18.1393 1.16516
1958 1 1 0.0832637 16.2157 4.48329
1166 1 1 0.140289 18.3631 7.1003
686 1 1 3.79201 0.365796 2.44898
847 1 1 0.604356 18.5863 1.94951
2492 1 1 3.84523 0.839447 37.438
248 1 1 5.49243 0.442905 3.82972
325 1 1 4.94639 17.3633 2.46839
1122 1 1 4.91635 0.984138 4.656
605 1 1 7.6872 1.03965 4.53399
777 1 1 5.47027 15.4088 6.80699
813 1 1 7.27948 14.436 4.17053
1174 1 1 8.26766 14.7033 4.60056
1385 1 1 8.60188 16.485 4.43323
820 1 1 11.1436 17.4701 2.27952
6 1 1 6.74965 15.5924 2.88368
7150 1 1 9.84864 18.3641 3.86255
869 1 1 14.5092 18.1578 3.92401
460 1 1 12.3086 16.4506 5.33581
20 1 1 15.7612 17.1305 3.04245
33 1 1 16.8716 0.560055 2.97424
437 1 1 15.3111 1.21133 2.02373
409 1 1 15.024 0.791639 4.87616
834 1 1 2.8489 0.437116 1.17735
867 1 1 18.6387 1.6995 5.6278
807 1 1 0.778226 1.45629 9.2025
794 1 1 1.37659 0.625983 5.77344
1526 1 1 1.74356 0.163043 4.36643
1171 1 1 1.78103 2.52792 5.58171
819 1 1 1.42215 17.2788 6.7637
763 1 1 2.23457 1.6912 4.97851
778 1 1 3.72655 0.653573 4.79098
971 1 1 5.92056 0.178972 5.08292
1729 1 1 5.62885 16.5769 3.07167
1248 1 1 5.06434 18.6682 5.86935
734 1 1 6.95751 16.8563 2.91383
1180 1 1 7.56019 0.310122 6.08936
1973 1 1 10.3726 0.541799 4.30079
353 1 1 11.5602 0.369838 6.70878
1308 1 1 7.93785 3.51557 4.9524
511 1 1 11.7162 2.46621 5.42989
2867 1 1 12.704 1.45023 4.81545
818 1 1 12.1746 17.652 4.94331
1706 1 1 10.7797 17.7132 4.45204
1213 1 1 14.132 3.10807 2.604
1514 1 1 0.842473 2.77412 3.91857
1672 1 1 15.4956 4.31446 5.02517
2347 1 1 17.239 0.921758 4.08798
1549 1 1 17.1452 17.8531 4.71325
1543 1 1 17.0401 2.60309 6.99958
7914 1 1 17.6608 1.97826 2.34067
1240 1 1 17.3093 0.545818 5.15273
1205 1 1 17.1074 2.55962 5.69223
491 1 1 3.40488 4.24379 5.05777
1129 1 1 2.14945 3.99495 5.47486
1608 1 1 2.19643 3.06526 8.17303
1932 1 1 6.29083 1.532 4.26986
93 1 1 10.711 0.128086 5.86611
858 1 1 4.26505 18.5223 6.99664
503 1 1 6.49608 2.09122 6.75317
977 1 1 7.32372 4.235 6.74967
2814 1 1 9.65424 18.4726 5.82475
857 1 1 9.01073 2.52272 6.80649
14 1 1 9.51604 1.64353 7.09211
1181 1 1 7.98518 3.82824 7.78446
850 1 1 12.667 3.7476 3.9517
1345 1 1 13.6177 1.03171 4.91889
2026 1 1 10.4724 17.8137 3.29769
2020 1 1 14.4268 0.955803 2.55718
1472 1 1 14.5564 3.7014 3.68769
756 1 1 17.5666 3.10363 4.958